! Tyco Electronics Strada Whisper System
! FEXT_H11112_G1112
!! 
!! SYSTEM DESCRIPTION: Daughtercard-Footprint-Connector-Footprint-Daughtercard
!! PCB DESCRIPTION: DC: 140mil, Megtron7N, upper layer route, 15mil stub, 6-6-6mil 14" traces
!! CONNECTOR DESCRIPTION: Next-Gen STRADA Whisper Direct-Plug Orthogonal Connector
!! MODEL DESCRIPTION: Tyco Electronics System 4-port S-parameter 
!! MODEL STATUS: Developmental
!! MODEL GEOMETRY: Channel Model
!! MODEL FREQUENCY RANGE: DC to 60 GHz in 10 MHz frequency steps
!! MODEL EDGE RATE LIMITATION: 8.3 ps (Using conservative 0.5/Fmax rule of thumb)
!! 
!! TIME-DOMAIN TRANSFORM CAUTIONS: 
!! 1.) Do not simulate transient edge rates faster than the number listed above.  Edge rates faster than this number 
!!     contain significant spectral content at frequencies above the model's highest frequency. 
!! 2.) Even when simulating edge rates that are slower than the number listed above, be aware that the best time 
!!     resolution possible with a direct iFFT is (1 / 2Fmax).  As a result, time resolution is typically not adequate 
!!     for most time-domain simulations unless tricks such as windowing are used to minimize leakage and aliasing. 
!! 3.) Because the model has a uniform frequency step, a direct iFFT will result in an impulse that that has a time 
!!     length given by either (1 / Fstep) or (1 / 2Fstep), depending on the transform being used.  Care has been taken 
!!     in selecting the frequency step to ensure a settled impulse response for the model.  Therefore, convolution with 
!!     the model's impulse response should present no issues.  However, if directly concatenating s-parameter models 
!!     in the frequency domain a user must either interpolate necessary interim frequencies or complete impulse response 
!!     zero-padding.  Impulse response zero-padding is more difficult, but more accurate. 
!! 
!! PORT DEFINITIONS: 
!! Port   1  ----->  TX Side	H11     G11     RX Side  <-----  Port   3
!! Port   2  ----->  TX Side	H12     G12     RX Side  <-----  Port   4
!! 
!!!!!!!!!!!!!!!!!!!!!!!!!!!!!!!!!!!!!!!!!!!!!!!!!!!!!!!!!!!!!!!!!!!!!!!!!!!!!!!!!!!!!!!!!!!!!!!!!!!!!!!!!!!!!!!!!!!!!!!!
! Touchstone data
! Created: 10-Dec-2018 by IdEM R2012 (8.0.5)
# Hz S MA R 50

!
                   0         0.0571794386                    0      3.30512347e-005                  180        0.00188994223                    0       2.7214044e-005                  180
     3.30512347e-005                  180          0.057012458                    0      2.82455309e-005                  180        0.00176619256                    0
       0.00188994223                    0      2.82455309e-005                  180          0.057288483                    0      3.24667516e-005                  180
      2.7214044e-005                  180        0.00176619256                    0      3.24667516e-005                  180         0.0572555495                    0

!
            10000000         0.0692904263           14.7478858       3.3138962e-005           154.573606         0.0382171439    68.81419220000001      2.90576022e-005           136.770561
      3.3138962e-005           154.573606         0.0692380628            15.057779      3.50564275e-005            123.45353         0.0381521145           69.1294541
        0.0382171439    68.81419220000001      3.50564275e-005            123.45353  0.06955529979999998           14.9192198      3.15840805e-005           166.487941
     2.90576022e-005           136.770561         0.0381521145           69.1294541      3.15840805e-005           166.487941         0.0696519571           15.2059916

!
            20000000         0.0907164853           14.6787237      3.37684544e-005           129.415495  0.07199032330000001           52.0565344      3.38995842e-005           99.1417045
     3.37684544e-005           129.415495         0.0909180788           15.1658566       5.0159274e-005           84.3877865         0.0719403334           52.4255521
 0.07199032330000001           52.0565344       5.0159274e-005           84.3877865  0.09127562810000001           14.8753113      2.97540995e-005           155.485088
     3.38995842e-005           99.1417045         0.0719403334           52.4255521      2.97540995e-005           155.485088  0.09166936489999999           15.3314791

!
            30000000          0.108995476           6.06741603      3.50821406e-005           104.500508  0.09808281169999999           34.6562287      4.01488394e-005    67.61857860000001
     3.50821406e-005           104.500508          0.109574402           6.72068801        6.805675e-005    55.24863969999999  0.09817614669999999           35.1456412
 0.09808281169999999           34.6562287        6.805675e-005    55.24863969999999          0.109862358           6.26169865      2.83916771e-005           148.581868
     4.01488394e-005    67.61857860000001  0.09817614669999999           35.1456412      2.83916771e-005           148.581868          0.110697182    6.875284870000001

!
            40000000           0.11839076          -6.37438476       3.7202971e-005           79.5615517          0.114238665    17.27257270000001      4.67913298e-005           40.5977536
      3.7202971e-005           79.5615517          0.119508536   -5.519058660000001 8.710531580000002e-005           30.4687163          0.114649046    17.91186490000001
         0.114238665    17.27257270000001 8.710531580000002e-005           30.4687163          0.119560858   -6.172788359999999      2.92709735e-005           144.683684
     4.67913298e-005           40.5977536          0.114649046    17.91186490000001      2.92709735e-005           144.683684          0.121015078          -5.37380739

!
            50000000          0.116441076          -20.7881871      4.01421862e-005           54.2103002          0.119143731        -0.0559793526      5.34271947e-005           16.6657941
     4.01421862e-005           54.2103002          0.118288974          -19.6617095       0.000106995157    7.720442610000001          0.120076364   0.7620040279999999
         0.119143731        -0.0559793526       0.000106995157    7.720442610000001          0.117912272          -20.5592654      3.33641032e-005           139.633899
     5.34271947e-005           16.6657941          0.120076364   0.7620040279999999      3.33641032e-005           139.633899          0.120193019          -19.5210996

!
            60000000          0.102199946          -36.5618353      4.37476241e-005           28.1034157          0.112195218          -17.3669671 6.003333489999999e-005          -5.11146242
     4.37476241e-005           28.1034157          0.104978524          -35.0298575       0.000127695611           -14.099832          0.113867178          -16.3361782
         0.112195218          -17.3669671       0.000127695611           -14.099832          0.103973345          -36.2682396      4.02390298e-005           130.373229
6.003333489999999e-005          -5.11146242          0.113867178          -16.3361782      4.02390298e-005           130.373229          0.107296519   -34.88923759999999

!
            70000000         0.0757321196   -53.74519169999999      4.76777332e-005           1.05030696         0.0935375094          -34.5445312      6.68094514e-005          -25.3749606
     4.76777332e-005           1.05030696  0.07960397330000001   -51.47188400000001       0.000149028611          -35.5895754         0.0961358118   -33.26225740000001
        0.0935375094          -34.5445312       0.000149028611          -35.5895754         0.0778056382          -53.2872684      4.88106009e-005            116.89027
     6.68094514e-005          -25.3749606         0.0961358118   -33.26225740000001      4.88106009e-005            116.89027         0.0823490834          -51.3223069

!
            80000000         0.0383290366          -73.9868463      5.14054134e-005          -26.9407151         0.0644487188          -50.8083996      7.40677274e-005   -44.65143000000001
     5.14054134e-005          -26.9407151          0.043295926          -69.4171029       0.000170454772           -57.058586         0.0680599811   -49.25686280000001
        0.0644487188          -50.8083996       0.000170454772           -57.058586         0.0406716849           -72.831941      5.80312137e-005           100.365068
     7.40677274e-005   -44.65143000000001         0.0680599811   -49.25686280000001      5.80312137e-005           100.365068         0.0464682224          -69.1917304

!
            90000000         0.0087517147           123.906441 5.429132970000001e-005          -55.6515268  0.02803484020000001          -60.6218201      8.20844803e-005          -63.4334028
5.429132970000001e-005          -55.6515268        0.00224566415           147.150829       0.000191061628          -78.5913972         0.0325569121           -59.555669
 0.02803484020000001          -60.6218201       0.000191061628          -78.5913972        0.00614051812           131.256726 6.703968250000002e-005    81.92448330000001
     8.20844803e-005          -63.4334028         0.0325569121           -59.555669 6.703968250000002e-005    81.92448330000001 0.002861292450000001          -124.520385

!
           100000000          0.057330546           81.1006332      5.57544522e-005   -84.68391770000001         0.0154166401    56.45771069999999 9.093714840000001e-005          -82.1347064
     5.57544522e-005   -84.68391770000001         0.0502059066    79.68774120000002       0.000209829089          -100.088172         0.0122081297           41.3444739
        0.0154166401    56.45771069999999       0.000209829089          -100.088172         0.0543099431    80.63078640000001      7.52001809e-005    62.42256339999999
9.093714840000001e-005          -82.1347064         0.0122081297           41.3444739      7.52001809e-005    62.42256339999999          0.046266932    80.14250540000001

!
           110000000          0.105359957           61.2725028 5.547423050000001e-005          -113.548247         0.0531920946           59.0667595       0.000100461042          -100.997809
5.547423050000001e-005          -113.548247         0.0980309056    60.91457590000001       0.000226080677          -121.345457         0.0484752034           58.0843445
        0.0531920946           59.0667595       0.000226080677          -121.345457          0.102105916           60.9369883      8.21595075e-005           42.4603263
      0.000100461042          -100.997809         0.0484752034           58.0843445      8.21595075e-005           42.4603263         0.0937764801            61.203062

!
           120000000          0.147324288           43.0344534      5.34805631e-005          -141.786258  0.08657621400000001           44.5159686        0.00011037527          -120.082068
     5.34805631e-005          -141.786258          0.140234086           43.0660073        0.00023979436          -142.168125  0.08210333559999999    44.67522349999999
 0.08657621400000001           44.5159686        0.00023979436          -142.168125          0.143846126    42.76003309999999 8.782863249999999e-005           22.4127759
       0.00011037527          -120.082068  0.08210333559999999    44.67522349999999 8.782863249999999e-005           22.4127759          0.135717183           43.3303313

!
           130000000          0.179994007           25.5971749      5.00647413e-005          -169.059486          0.111743356    28.66015819999999       0.000120439568          -139.346731
     5.00647413e-005          -169.059486          0.173492751           25.7852669       0.000251530006          -162.453484          0.107912217            29.130967
         0.111743356    28.66015819999999       0.000251530006          -162.453484          0.176291799           25.3503287 9.226480690000002e-005           2.47658254
      0.000120439568          -139.346731          0.107912217            29.130967 9.226480690000002e-005           2.47658254           0.16874689           26.0551972

!
           140000000          0.201750459    8.749634919999998      4.56009602e-005           164.845403          0.127298958           12.8244279        0.00013050997           -158.73874
     4.56009602e-005           164.845403          0.196045326    8.973739090000001       0.000262093005           177.791772          0.124304014           13.3719615
         0.127298958           12.8244279       0.000262093005           177.791772           0.19780819           8.51351086 9.554296630000001e-005          -17.2538588
       0.00013050997           -158.73874          0.124304014           13.3719615 9.554296630000001e-005          -17.2538588          0.191081016           9.26613154

!
           150000000          0.212084574   -7.680989210000001      4.04066564e-005           140.093739          0.132839803          -2.78103028       0.000140502076          -178.231727
     4.04066564e-005           140.093739          0.207267243          -7.50419844       0.000272220584           158.485961          0.130756605   -2.277632520000001
         0.132839803          -2.78103028       0.000272220584           158.485961          0.207872319   -7.916022650000001      9.76942881e-005          -36.7074217
      0.000140502076          -178.231727          0.130756605   -2.277632520000001      9.76942881e-005          -36.7074217          0.202075118          -7.17197884

!
           160000000          0.211079045   -23.85878470000001      3.46940861e-005            116.96022          0.128399989          -18.1548161       0.000150326393           162.174094
     3.46940861e-005            116.96022          0.207163345          -23.8111009       0.000282435936           139.519376           0.12723221          -17.8067391
         0.128399989          -18.1548161       0.000282435936           139.519376          0.206559537   -24.09817410000001 9.872670880000001e-005           -55.774455
      0.000150326393           162.174094           0.12723221          -17.8067391 9.872670880000001e-005           -55.774455          0.201722767          -23.4150688

!
           170000000          0.199179503   -39.89054479999999      2.86122395e-005           96.1427692          0.114281078          -33.2071821        0.00015983366            142.46839
     2.86122395e-005           96.1427692          0.196111678          -40.0839915       0.000293047346           120.789102          0.113965115          -33.1898253
         0.114281078          -33.2071821       0.000293047346           120.789102          0.194317215            -40.13543 9.871510740000001e-005          -74.2701522
       0.00015983366            142.46839          0.113965115          -33.1898253 9.871510740000001e-005          -74.2701522          0.190402828          -39.5858704

!
           180000000          0.177326186          -55.7456837      2.24122796e-005    79.50309360000001         0.0912911797          -47.3967074       0.000168785723           122.651619
     2.24122796e-005    79.50309360000001          0.174952248          -56.3668422       0.000304222543           102.215585         0.0916378548   -48.09305620000001
        0.0912911797          -47.3967074       0.000304222543           102.215585          0.172097847           -55.988592 9.794280979999998e-005          -91.9380328
      0.000168785723           122.651619         0.0916378548   -48.09305620000001 9.794280979999998e-005          -91.9380328          0.168970924          -55.6987921

!
           190000000          0.147348917          -71.1329282        1.692401e-005           71.6390064         0.0613675393          -58.5205098        0.00017686642           102.754758
       1.692401e-005           71.6390064          0.145339023          -72.5222114       0.000316083582    83.74286290000001         0.0618741775          -61.0149194
        0.0613675393          -58.5205098       0.000316083582    83.74286290000001          0.141754181           -71.341731      9.70435028e-005          -108.529844
       0.00017686642           102.754758         0.0618741775          -61.0149194      9.70435028e-005          -108.529844          0.139114377   -71.54963600000001

!
           200000000          0.112360837          -85.2732745      1.45758055e-005           77.8201948         0.0295478842          -54.0976805       0.000183742987    82.85179680000002
     1.45758055e-005           77.8201948          0.110101652          -88.0888484       0.000328775663    65.32735200000001         0.0284180356   -62.67369510000001
        0.0295478842          -54.0976805       0.000328775663    65.32735200000001          0.106434643          -85.3310705       9.7019688e-005          -123.993677
      0.000183742987    82.85179680000002         0.0284180356   -62.67369510000001       9.7019688e-005          -123.993677          0.103722106          -86.5017139

!
           210000000         0.0768185985   -96.33168360000001      1.80252372e-005            84.333597         0.0235901713           14.6083724       0.000189167814           63.0594689
     1.80252372e-005            84.333597  0.07325743690000001          -101.908412       0.000342475304           46.9248624         0.0179377169           22.4690459
        0.0235901713           14.6083724       0.000342475304           46.9248624  0.07067348699999999          -95.7742779      9.89823733e-005           -138.69208
      0.000189167814           63.0594689         0.0179377169           22.4690459      9.89823733e-005           -138.69208         0.0669419072   -98.81374959999999

!
           220000000         0.0462909637   -99.70092200000001      2.57033133e-005    76.46088760000001         0.0509891522    28.68855350000001       0.000193086428           43.5230012
     2.57033133e-005    76.46088760000001         0.0395815296          -110.397199       0.000357355335           28.4855296          0.047800632           37.3927328
        0.0509891522    28.68855350000001       0.000357355335           28.4855296         0.0404010289   -96.39664240000001       0.000103645436          -153.394643
      0.000193086428           43.5230012          0.047800632           37.3927328       0.000103645436          -153.394643         0.0340726347          -102.090293

!
           230000000         0.0275529004   -86.19319670000002      3.52754027e-005    59.24519930000001         0.0759952666            18.708098       0.000195711928             24.39162
     3.52754027e-005    59.24519930000001         0.0152306912          -94.2809163 0.0003735605859999999    9.954817850000001         0.0746432346           26.1549776
        0.0759952666            18.708098 0.0003735605859999999    9.954817850000001         0.0241651651           -73.672741       0.000110953637          -168.913327
      0.000195711928             24.39162         0.0746432346           26.1549776       0.000110953637          -168.913327         0.0152524646   -64.10447850000001

!
           240000000          0.023354254          -66.1258844       4.5733015e-005           37.5846051          0.092108765            4.3401935        0.00019754701            5.7894302
      4.5733015e-005           37.5846051          0.013539092          -30.1959399 0.0003911940279999999   -8.728479350000001         0.0927518584           11.4403963
         0.092108765            4.3401935 0.0003911940279999999   -8.728479350000001          0.024378104            -50.11211       0.000120172357           174.282467
       0.00019754701            5.7894302         0.0927518584           11.4403963       0.000120172357           174.282467         0.0213736464          -21.8999304

!
           250000000         0.0215443419   -68.20084660000001      5.66499176e-005           13.5445155         0.0973136403          -11.3550393       0.000199366376          -12.2176691
     5.66499176e-005           13.5445155         0.0176843818          -19.4893275       0.000410252535          -27.6366885          0.100248163          -4.07797321
        0.0973136403          -11.3550393       0.000410252535          -27.6366885         0.0243623211          -52.4346253       0.000130250809           156.120677
      0.000199366376          -12.2176691          0.100248163          -4.07797321       0.000130250809           156.120677         0.0261436929          -21.8859961

!
           260000000         0.0139154039          -101.960949 6.770766930000001e-005          -12.0539059         0.0909787198          -27.4948458       0.000202161809          -29.6669241
6.770766930000001e-005          -12.0539059         0.0123052195          -14.9259912       0.000430482505          -46.8499669         0.0964764647          -19.5845979
        0.0909787198          -27.4948458       0.000430482505          -46.8499669         0.0155604949          -74.9642279       0.000140086113           136.763605
      0.000202161809          -29.6669241         0.0964764647          -19.5845979       0.000140086113           136.763605         0.0203948907          -27.7197245

!
           270000000         0.0176369229           160.944337      7.84746149e-005           -38.851233          0.073529471          -43.4721322       0.000206977995          -46.7521412
     7.84746149e-005           -38.851233 0.009899177420000002           77.5556771       0.000451201339   -66.43763060000001  0.08176760650000002          -34.3197658
         0.073529471          -43.4721322       0.000451201339   -66.43763060000001         0.0105644671           167.689756       0.000148612518           116.473623
      0.000206977995          -46.7521412  0.08176760650000002          -34.3197658       0.000148612518           116.473623        0.00619350365           12.8832791

!
           280000000         0.0457827441           118.903595 8.831860460000001e-005   -66.61375339999999  0.04661454290000001          -57.6921588       0.000214541164          -63.8338637
8.831860460000001e-005   -66.61375339999999         0.0360965664    94.50354830000001       0.000471201919   -86.42504529999999           0.05769927   -46.20507030000001
 0.04661454290000001          -57.6921588       0.000471201919   -86.42504529999999         0.0386333065            116.09819        0.00015487934           95.5730925
      0.000214541164          -63.8338637           0.05769927   -46.20507030000001        0.00015487934           95.5730925         0.0266202263            94.021361

!
           290000000         0.0832578433           95.5566894      9.64643603e-005          -95.0773671         0.0141466486   -53.82995960000001       0.000224788538          -81.3285099
     9.64643603e-005          -95.0773671         0.0719652403           83.7729667       0.000488907666          -106.758642         0.0286132258          -43.9002524
        0.0141466486   -53.82995960000001       0.000488907666          -106.758642  0.07617910059999999           93.5502355       0.000158248868    74.43671900000001
      0.000224788538          -81.3285099         0.0286132258          -43.9002524       0.000158248868    74.43671900000001         0.0623100248            84.950154

!
           300000000          0.124354283           75.7710027       0.000102210129          -123.894038         0.0254574427           62.0278105       0.000236730083          -99.5058602
      0.000102210129          -123.894038          0.112312254           68.9674502 0.0005028718290000001          -127.294191         0.0216749388           28.9094125
        0.0254574427           62.0278105 0.0005028718290000001          -127.294191          0.117252402           74.3040695       0.000158630243    53.44613240000001
      0.000236730083          -99.5058602         0.0216749388           28.9094125       0.000158630243    53.44613240000001          0.102618633    70.16468450000001

!
           310000000          0.164387587    57.29156669999999       0.000105210286          -152.663374  0.06008697490000001           54.3520366       0.000248935243          -118.372987
      0.000105210286          -152.663374          0.152628158    52.92994869999999       0.000512420863          -147.830693         0.0516193905           45.0228556
 0.06008697490000001           54.3520366       0.000512420863          -147.830693          0.157242706           56.1286396       0.000156494698           32.9012281
      0.000248935243          -118.372987         0.0516193905           45.0228556       0.000156494698           32.9012281          0.142978503           54.0390116

!
           320000000          0.199447629           39.6414802       0.000105628384           178.981411  0.09023193490000001           40.1199294       0.000260267328          -137.748254
      0.000105628384           178.981411          0.188845923           36.5679846       0.000517975746          -168.180482  0.08188500310000001    35.80760479999999
 0.09023193490000001           40.1199294       0.000517975746          -168.180482          0.192245473           38.6539822       0.000152571123           12.9578072
      0.000260267328          -137.748254  0.08188500310000001    35.80760479999999       0.000152571123           12.9578072          0.179298445           37.6092706

!
           330000000          0.226881948           22.6740557       0.000104045599           151.289924           0.11327308           25.2505914       0.000270237524          -157.420478
      0.000104045599           151.289924          0.218002564           20.2656623       0.000520784265           171.767439          0.106148113            22.689804
          0.11327308           25.2505914       0.000520784265           171.767439          0.219590205           21.7881062       0.000147467567          -6.34441662
      0.000270237524          -157.420478          0.106148113            22.689804       0.000147467567          -6.34441662          0.208579071           21.2737591

!
           340000000          0.245270048           6.27103666       0.000101212402           124.355399          0.128092706            10.587163       0.000278851804          -177.252256
      0.000101212402           124.355399          0.238383534           4.14795305       0.000522305033             152.0269          0.122578131    8.684819579999997
         0.128092706            10.587163       0.000522305033             152.0269           0.23783455           5.44024057       0.000141518616          -24.9830473
      0.000278851804          -177.252256          0.122578131    8.684819579999997       0.000141518616          -24.9830473          0.229068851    5.158585410000001

!
           350000000           0.25404022   -9.711316630000001      9.78109778e-005           98.1194869          0.134356908          -3.70146626 0.0002862615609999999           162.803708
     9.78109778e-005           98.1194869          0.249220378          -11.8163949       0.000523671402           132.535927           0.13053472          -5.49399571
         0.134356908          -3.70146626       0.000523671402           132.535927          0.246390623          -10.5189649       0.000134902923          -42.8513923
0.0002862615609999999           162.803708           0.13053472          -5.49399571       0.000134902923          -42.8513923          0.239972654           -10.765174

!
           360000000          0.253077326          -25.4248765      9.43084326e-005           72.3994111          0.132076306          -17.5714197       0.000292484403           142.736341
     9.43084326e-005           72.3994111          0.250287567          -27.7453304       0.000525432459           113.196793          0.129864758          -19.6702422
         0.132076306          -17.5714197       0.000525432459           113.196793          0.245136895          -26.2335263       0.000127911243   -59.70104600000001
      0.000292484403           142.736341          0.129864758          -19.6702422       0.000127911243   -59.70104600000001          0.241053572           -26.608655

!
           370000000          0.242534368          -40.9899698 9.088307040000002e-005            46.928001          0.121457281           -30.858939       0.000297266035           122.521034
9.088307040000002e-005            46.928001          0.241654556          -43.7890895 0.0005275289609999999           93.9165105          0.120620392          -33.7627898
         0.121457281           -30.858939 0.0005275289609999999           93.9165105          0.234231607          -41.8189449       0.000121264381          -75.1688984
      0.000297266035           122.521034          0.120620392          -33.7627898       0.000121264381          -75.1688984          0.232385994          -42.5082363

!
           380000000          0.222910306          -56.4436094      8.73916933e-005           21.4178255          0.103111853          -42.9571024       0.000300081596           102.164479
     8.73916933e-005           21.4178255          0.223688874          -60.0860408       0.000529428816           74.6416207          0.103119432          -47.5125451
         0.103111853          -42.9571024       0.000529428816           74.6416207          0.214191462          -57.3074482       0.000116357842          -88.9827614
      0.000300081596           102.164479          0.103119432          -47.5125451       0.000116357842          -88.9827614          0.214357758   -58.57678370000001

!
           390000000          0.195356251          -71.6748427      8.33915976e-005          -4.33767628  0.07869501230000001          -51.9936921       0.000300296092    81.74288559999999
     8.33915976e-005          -4.33767628          0.197295625          -76.7286469       0.000530422062           55.3835051         0.0783167954   -59.97872439999999