! Tyco Electronics Strada Whisper System
! THRU_G1112
!! 
!! SYSTEM DESCRIPTION: Daughtercard-Footprint-Connector-Footprint-Daughtercard
!! PCB DESCRIPTION: DC: 140mil, Megtron7N, upper layer route, 15mil stub, 6-6-6mil 14" traces
!! CONNECTOR DESCRIPTION: Next-Gen STRADA Whisper Direct-Plug Orthogonal Connector
!! MODEL DESCRIPTION: Tyco Electronics System 4-port S-parameter 
!! MODEL STATUS: Developmental
!! MODEL GEOMETRY: Channel Model
!! MODEL FREQUENCY RANGE: DC to 60 GHz in 10 MHz frequency steps
!! MODEL EDGE RATE LIMITATION: 8.3 ps (Using conservative 0.5/Fmax rule of thumb)
!! 
!! TIME-DOMAIN TRANSFORM CAUTIONS: 
!! 1.) Do not simulate transient edge rates faster than the number listed above.  Edge rates faster than this number 
!!     contain significant spectral content at frequencies above the model's highest frequency. 
!! 2.) Even when simulating edge rates that are slower than the number listed above, be aware that the best time 
!!     resolution possible with a direct iFFT is (1 / 2Fmax).  As a result, time resolution is typically not adequate 
!!     for most time-domain simulations unless tricks such as windowing are used to minimize leakage and aliasing. 
!! 3.) Because the model has a uniform frequency step, a direct iFFT will result in an impulse that that has a time 
!!     length given by either (1 / Fstep) or (1 / 2Fstep), depending on the transform being used.  Care has been taken 
!!     in selecting the frequency step to ensure a settled impulse response for the model.  Therefore, convolution with 
!!     the model's impulse response should present no issues.  However, if directly concatenating s-parameter models 
!!     in the frequency domain a user must either interpolate necessary interim frequencies or complete impulse response 
!!     zero-padding.  Impulse response zero-padding is more difficult, but more accurate. 
!! 
!! PORT DEFINITIONS: 
!! Port   1  ----->  TX Side      G11     RX Side  <-----  Port   2
!! Port   3  ----->  TX Side      G12     RX Side  <-----  Port   4
!! 
!!!!!!!!!!!!!!!!!!!!!!!!!!!!!!!!!!!!!!!!!!!!!!!!!!!!!!!!!!!!!!!!!!!!!!!!!!!!!!!!!!!!!!!!!!!!!!!!!!!!!!!!!!!!!!!!!!!!!!!!
! Touchstone data
! Created: 10-Dec-2018 by IdEM R2012 (8.0.5)
# Hz S MA R 50

!
                   0         0.0574742849                    0          0.940720751                    0        0.00170201038                    0        0.00133829969                  180
         0.940720751                    0         0.0571794386                    0        0.00135902835                  180        0.00188994223                    0
       0.00170201038                    0        0.00135902835                  180         0.0577228862                    0           0.94053404                    0
       0.00133829969                  180        0.00188994223                    0           0.94053404                    0          0.057288483                    0

!
            10000000         0.0694620022           14.5548236          0.937432048          -18.6365227         0.0381053265           69.1095096        0.00292504407          -160.388538
         0.937432048          -18.6365227         0.0692904263           14.7478858        0.00291910339          -161.201751         0.0382171439    68.81419220000001
        0.0381053265           69.1095096        0.00291910339          -161.201751         0.0698680944           14.6884231          0.937236887           -18.638318
       0.00292504407          -160.388538         0.0382171439    68.81419220000001          0.937236887           -18.638318  0.06955529979999998           14.9192198

!
            20000000         0.0906842928           14.4981402          0.932806267   -37.15326039999999  0.07178283520000001            52.246734 0.005138783100000001            167.84099
         0.932806267   -37.15326039999999         0.0907164853           14.6787237        0.00512697799           166.998986  0.07199032330000001           52.0565344
 0.07178283520000001            52.246734        0.00512697799           166.998986         0.0914041241           14.6489878          0.932587476          -37.1560886
0.005138783100000001            167.84099  0.07199032330000001           52.0565344          0.932587476          -37.1560886  0.09127562810000001           14.8753113

!
            30000000          0.108772828           5.94750808          0.928015263          -55.5296581  0.09778121289999998           34.8361739        0.00709022012           128.294878
         0.928015263          -55.5296581          0.108995476           6.06741603 0.007103124689999999           127.381815  0.09808281169999999           34.6562287
 0.09778121289999998           34.8361739 0.007103124689999999           127.381815          0.109838674    6.089526199999999   0.9277658350000001   -55.53223130000001
       0.00709022012           128.294878  0.09808281169999999           34.6562287   0.9277658350000001   -55.53223130000001          0.109862358           6.26169865

!
            40000000          0.117989794          -6.42401121          0.924392671   -73.79130619999999          0.113846182           17.4752712        0.00863960766    86.62438760000001
         0.924392671   -73.79130619999999           0.11839076          -6.37438476        0.00870714027    85.71240589999999          0.114238665    17.27257270000001
         0.113846182           17.4752712        0.00870714027    85.71240589999999          0.119411839          -6.28873973          0.924116249          -73.7920658
       0.00863960766    86.62438760000001          0.114238665    17.27257270000001          0.924116249          -73.7920658          0.119560858   -6.172788359999999

!
            50000000           0.11586537          -20.7492961           0.92278908          -92.0098196          0.118663081          0.198370535        0.00970021473    43.86814639999999
          0.92278908          -92.0098196          0.116441076          -20.7881871        0.00984365936           43.0864784          0.119143731        -0.0559793526
         0.118663081          0.198370535        0.00984365936           43.0864784          0.117654434          -20.6145958          0.922500973           -92.007218
       0.00970021473    43.86814639999999          0.119143731        -0.0559793526          0.922500973           -92.007218          0.117912272          -20.5592654

!
            60000000           0.10144739          -36.3854264   0.9232368609999999          -110.278757          0.111630278          -17.0167189         0.0101799846 -0.06990342840000001
  0.9232368609999999          -110.278757          0.102199946          -36.5618353         0.0104037725         -0.547175562          0.112195218          -17.3669671
         0.111630278          -17.0167189         0.0104037725         -0.547175562          0.103616511   -36.24199320000001          0.922964227          -110.271551
        0.0101799846 -0.06990342840000001          0.112195218          -17.3669671          0.922964227          -110.271551          0.103973345          -36.2682396

!
            70000000  0.07479516310000002          -53.2902723   0.9248407219999999          -128.682206         0.0928995945   -34.00515059999999 0.009996846950000001          -45.9575179
  0.9248407219999999          -128.682206         0.0757321196   -53.74519169999999          0.010280175          -45.8916759         0.0935375094          -34.5445312
        0.0928995945   -34.00515059999999          0.010280175          -45.8916759  0.07735392570000001          -53.1120311          0.924621557          -128.669776
0.009996846950000001          -45.9575179         0.0935375094          -34.5445312          0.924621557          -128.669776         0.0778056382          -53.2872684

!
            80000000         0.0371713504          -72.6284065          0.925921618          -147.259552           0.06377692   -49.80828830000001 0.009163887710000001          -95.4372094
         0.925921618          -147.259552         0.0383290366          -73.9868463        0.00944913241           -94.480222         0.0644487188          -50.8083996
          0.06377692   -49.80828830000001        0.00944913241           -94.480222         0.0401135513   -72.20915030000001          0.925801007          -147.242221
0.009163887710000001          -95.4372094         0.0644487188          -50.8083996          0.925801007          -147.242221         0.0406716849           -72.831941

!
            90000000 0.009297075009999999           112.587012   0.9245570980000001          -165.976165          0.027546967          -57.6054803 0.007985692799999999          -151.597039
  0.9245570980000001          -165.976165         0.0087517147           123.906441 0.008160303860000001          -149.363575  0.02803484020000001          -60.6218201
         0.027546967          -57.6054803 0.008160303860000001          -149.363575 0.006248001750000001           122.569789          0.924579412          -165.955409
0.007985692799999999          -151.597039  0.02803484020000001          -60.6218201          0.924579412          -165.955409        0.00614051812           131.256726

!
           100000000         0.0585503149    79.18367739999999          0.919485751           175.277733         0.0170087274    53.58765560000001 0.007357313189999999           142.624692
         0.919485751           175.277733          0.057330546           81.1006332        0.00726867119           145.562266         0.0154166401    56.45771069999999
        0.0170087274    53.58765560000001        0.00726867119           145.562266         0.0549070331            79.536019   0.9196841100000002           175.299333
0.007357313189999999           142.624692         0.0154166401    56.45771069999999   0.9196841100000002           175.299333         0.0543099431    80.63078640000001

!
           110000000           0.10671562           59.9867144          0.910864149           156.644695  0.05446549729999999    57.37945910000001        0.00844120703    74.34359670000001
         0.910864149           156.644695          0.105359957           61.2725028 0.008096499179999999    75.73763340000001         0.0531920946           59.0667595
 0.05446549729999999    57.37945910000001 0.008096499179999999    75.73763340000001          0.102783518           60.2032837          0.911251948           156.663818
       0.00844120703    74.34359670000001         0.0531920946           59.0667595          0.911251948           156.663818          0.102105916           60.9369883

!
           120000000          0.148762241           41.9275626          0.900238336           138.234895          0.087809161           43.2543648         0.0111874516           15.8072447
         0.900238336           138.234895          0.147324288           43.0344534         0.0107889453           15.5366698  0.08657621400000001           44.5159686
         0.087809161           43.2543648         0.0107889453           15.5366698          0.144584911           42.1228225   0.9008073520000001           138.248028
        0.0111874516           15.8072447  0.08657621400000001           44.5159686   0.9008073520000001           138.248028          0.143846126    42.76003309999999

!
           130000000          0.181482787            24.529346          0.889757997           120.082893           0.11296635           27.5249572         0.0146824665          -32.9904683
         0.889757997           120.082893          0.179994007           25.5971749         0.0143629975          -33.9128235          0.111743356    28.66015819999999
          0.11296635           27.5249572         0.0143629975          -33.9128235          0.177083529           24.7284861   0.8904827360000001           120.086834
        0.0146824665          -32.9904683          0.111743356    28.66015819999999   0.8904827360000001           120.086834          0.176291799           25.3503287

!
           140000000          0.203266079    7.642505439999998   0.8813045210000001           102.147492          0.128513856             11.68418         0.0182453447          -75.8972299
  0.8813045210000001           102.147492          0.201750459    8.749634919999998         0.0180558416          -76.9536014          0.127298958           12.8244279
         0.128513856             11.68418         0.0180558416          -76.9536014          0.198646261    7.859838049999999   0.8821484110000001           102.139649
        0.0182453447          -75.8972299          0.127298958           12.8244279   0.8821484110000001           102.139649           0.19780819           8.51351086

!
           150000000          0.213604561   -8.894637319999999   0.8760277440000001           84.3384612          0.134038428   -4.025879610000001         0.0214743708          -115.346974
  0.8760277440000001           84.3384612          0.212084574   -7.680989210000001         0.0214297478          -116.333995          0.132839803          -2.78103028
         0.134038428   -4.025879610000001         0.0214297478          -116.333995          0.208747707   -8.644102330000001   0.8769472570000001           84.3169845
        0.0214743708          -115.346974          0.132839803          -2.78103028   0.8769472570000001           84.3169845          0.207872319   -7.916022650000001

!
           160000000          0.212575386          -25.2570187          0.874261493           66.5461323          0.129560698          -19.6219907         0.0240916388          -152.643642
         0.874261493           66.5461323          0.211079045   -23.85878470000001          0.024189524          -153.475984          0.128399989          -18.1548161
         0.129560698          -19.6219907          0.024189524          -153.475984          0.207456106          -24.9521391          0.875207377    66.51001580000001
        0.0240916388          -152.643642          0.128399989          -18.1548161          0.875207377    66.51001580000001          0.206559537   -24.09817410000001

!
           170000000          0.200608336          -41.5832089          0.875582399    48.66489740000001          0.115354143          -35.0866451         0.0258612028           171.519945
         0.875582399    48.66489740000001          0.199179503   -39.89054479999999         0.0260886737           170.885775          0.114281078          -33.2071821
         0.115354143          -35.0866451         0.0260886737           170.885775          0.195204548          -41.1897542   0.8764998130000001           48.6141509
        0.0258612028           171.519945          0.114281078          -33.2071821   0.8764998130000001           48.6141509          0.194317215            -40.13543

!
           180000000          0.178611226   -57.90798730000001   0.8788972760000001           30.6140867  0.09216078480000001   -50.07776200000001  0.02657627640000001           136.850638
  0.8788972760000001           30.6140867          0.177326186          -55.7456837         0.0269130307           136.445177         0.0912911797          -47.3967074
 0.09216078480000001   -50.07776200000001         0.0269130307           136.445177          0.172919091           -57.364741          0.879727737    30.54998920000001
 0.02657627640000001           136.850638         0.0912911797          -47.3967074          0.879727737    30.54998920000001          0.172097847           -55.988592

!
           190000000          0.148351827   -74.07372239999999          0.882632354           12.3593439  0.06171439000000001   -63.04938020000001  0.02610748900000001           103.406404
         0.882632354           12.3593439          0.147348917          -71.1329282         0.0265290478           103.259395         0.0613675393          -58.5205098
 0.06171439000000001   -63.04938020000001         0.0265290478           103.259395          0.142403406          -73.2589224   0.8833201330000001           12.2846492
 0.02610748900000001           103.406404         0.0613675393          -58.5205098   0.8833201330000001           12.2846492          0.141754181           -71.341731

!
           200000000          0.112819504          -89.5934101           0.88515753   -6.072607580000001          0.027948858          -64.3642588         0.0244955028    71.60649410000002
          0.88515753   -6.072607580000001          0.112360837          -85.2732745         0.0249785893           71.7513099         0.0295478842          -54.0976805
         0.027948858          -64.3642588         0.0249785893           71.7513099          0.106707267          -88.2291178          0.885660716   -6.153719110000001
        0.0244955028    71.60649410000002         0.0295478842          -54.0976805          0.885660716   -6.153719110000001          0.106434643          -85.3310705

!
           210000000         0.0761909556          -103.324683          0.885396195          -24.6011807         0.0182086758            21.227858         0.0220393594           42.2169222
         0.885396195          -24.6011807         0.0768185985   -96.33168360000001         0.0225699249           42.6854098         0.0235901713           14.6083724
        0.0182086758            21.227858         0.0225699249           42.6854098  0.07012975489999999          -100.639458           0.88569867            -24.68355
        0.0220393594           42.2169222         0.0235901713           14.6083724           0.88569867            -24.68355  0.07067348699999999          -95.7742779

!
           220000000         0.0432988583          -112.208433   0.8832695969999999          -43.1273731          0.047587815    34.97103440000001         0.0193095724           16.1665325
  0.8832695969999999          -43.1273731         0.0462909637   -99.70092200000001         0.0198903923           16.9622907         0.0509891522    28.68855350000001
         0.047587815    34.97103440000001         0.0198903923           16.9622907          0.037920013           -105.35651   0.8833878160000001   -43.20563640000001
        0.0193095724           16.1665325         0.0509891522    28.68855350000001   0.8833878160000001   -43.20563640000001         0.0404010289   -96.39664240000001

!
           230000000         0.0194360302          -104.865269   0.8796154010000001          -61.5797731         0.0732712071           23.5483681         0.0170222547          -6.12700618
  0.8796154010000001          -61.5797731         0.0275529004   -86.19319670000002         0.0176715195          -5.08287911         0.0759952666            18.708098
        0.0732712071           23.5483681         0.0176715195          -5.08287911         0.0176695176           -82.232254          0.879596702          -61.6491927
        0.0170222547          -6.12700618         0.0759952666            18.708098          0.879596702          -61.6491927         0.0241651651           -73.672741

!
           240000000         0.0114968375           -61.284819          0.875631486          -79.9426472         0.0897483619    8.734981679999999         0.0157223155          -26.0076248
         0.875631486          -79.9426472          0.023354254          -66.1258844         0.0164556052           -24.880754          0.092108765            4.3401935
        0.0897483619    8.734981679999999         0.0164556052           -24.880754         0.0173509782           -40.757612           0.87554628   -79.99974349999999
        0.0157223155          -26.0076248          0.092108765            4.3401935           0.87554628   -79.99974349999999          0.024378104            -50.11211

!
           250000000         0.0106399783          -42.1235386          0.872235488          -98.2536186         0.0952440869   -6.826605849999999         0.0153884445          -46.7058981
         0.872235488          -98.2536186         0.0215443419   -68.20084660000001         0.0162000292           -45.593242         0.0973136403          -11.3550393
        0.0952440869   -6.826605849999999         0.0162000292           -45.593242         0.0184689479          -36.2175894          0.872168194   -98.29653850000001
        0.0153884445          -46.7058981         0.0973136403          -11.3550393          0.872168194   -98.29653850000001         0.0243623211          -52.4346253

!
           260000000        0.00152746631          -17.3567144          0.869650672          -116.578877         0.0892427187          -22.2415956         0.0154152178   -70.99467180000001
         0.869650672          -116.578877         0.0139154039          -101.960949         0.0162800984          -69.8043552         0.0909787198          -27.4948458
        0.0892427187          -22.2415956         0.0162800984          -69.8043552 0.009563774359999999           -42.818995   0.8696918279999999          -116.607595
        0.0154152178   -70.99467180000001         0.0909787198          -27.4948458   0.8696918279999999          -116.607595         0.0155604949          -74.9642279

!
           270000000         0.0192251892           113.544392          0.867299453          -134.978841         0.0723244114          -36.4478939         0.0150439856   -99.83533510000001
         0.867299453          -134.978841         0.0176369229           160.944337         0.0159228151   -98.33870880000002          0.073529471          -43.4721322
        0.0723244114          -36.4478939         0.0159228151   -98.33870880000002         0.0107664236           113.718316          0.867537785          -134.995282
        0.0150439856   -99.83533510000001          0.073529471          -43.4721322          0.867537785          -134.995282         0.0105644671           167.689756

!
           280000000         0.0497343618           100.297268   0.8640116649999999          -153.474142         0.0466120739   -45.89264710000001         0.0137351711          -133.537502
  0.8640116649999999          -153.474142         0.0457827441           118.903595         0.0145669289          -131.378637  0.04661454290000001          -57.6921588
        0.0466120739   -45.89264710000001         0.0145669289          -131.378637         0.0411202512           101.657873   0.8645236590000001          -153.482193
        0.0137351711          -133.537502  0.04661454290000001          -57.6921588   0.8645236590000001          -153.482193         0.0386333065            116.09819

!
           290000000  0.08751815699999999    84.55097739999999          0.858552538          -172.023999         0.0197054147          -24.5683729         0.0113659188          -173.578781
         0.858552538          -172.023999         0.0832578433           95.5566894         0.0120455312          -170.109227         0.0141466486   -53.82995960000001
        0.0197054147          -24.5683729         0.0120455312          -170.109227         0.0788279593           85.7035839          0.859389591          -172.029237
        0.0113659188          -173.578781         0.0141466486   -53.82995960000001          0.859389591          -172.029237  0.07617910059999999           93.5502355

!
           300000000          0.128541743           67.9169354          0.850314843           169.467367         0.0316851405           44.7994041        0.00854103507           134.515722
         0.850314843           169.467367          0.124354283           75.7710027 0.008850652210000002           140.411863         0.0254574427           62.0278105
        0.0316851405           44.7994041 0.008850652210000002           140.411863          0.119848492           68.8961181          0.851492685           169.458335
       0.00854103507           134.515722         0.0254574427           62.0278105          0.851492685           169.458335          0.117252402           74.3040695

!
           310000000          0.168364161           51.0253266          0.839763477           151.111953         0.0639023559           44.8933379        0.00742123129           62.8095926
         0.839763477           151.111953          0.164387587    57.29156669999999 0.007024471340000001           69.0758907  0.06008697490000001           54.3520366
        0.0639023559           44.8933379 0.007024471340000001           69.0758907          0.159729375           51.8912207          0.841260305           151.092433
       0.00742123129           62.8095926  0.06008697490000001           54.3520366          0.841260305           151.092433          0.157242706           56.1286396

!
           320000000          0.203141658           34.2342324          0.828288179           132.988295         0.0930919078           33.3318149         0.0101967007          -5.70850578
         0.828288179           132.988295          0.199447629           39.6414802 0.009437396190000001          -4.28792589  0.09023193490000001           40.1199294
        0.0930919078           33.3318149 0.009437396190000001          -4.28792589           0.19459737           35.0329631          0.830053169           132.952403
        0.0101967007          -5.70850578  0.09023193490000001           40.1199294          0.830053169           132.952403          0.192245473           38.6539822

!
           330000000          0.230246933           17.7129601          0.817604411    115.1124970000001          0.115499195           19.5750013         0.0151634886          -55.0521886
         0.817604411    115.1124970000001          0.226881948           22.6740557         0.0144758211   -55.41398970000001           0.11327308           25.2505914
         0.115499195           19.5750013         0.0144758211   -55.41398970000001          0.221787933           18.4810971          0.819571135           115.055687
        0.0151634886          -55.0521886           0.11327308           25.2505914          0.819571135           115.055687          0.219590205           21.7881062

!
           340000000          0.248266749             1.477662   0.8091672640000001    97.44092810000001          0.129781976    5.340090500000001         0.0205953014   -94.83680390000001
  0.8091672640000001    97.44092810000001          0.245270048           6.27103666         0.0200663259           -95.495047          0.128092706            10.587163
         0.129781976    5.340090500000001         0.0200663259           -95.495047          0.239855342    2.248054910000001          0.811264556    97.36011499999999
        0.0205953014   -94.83680390000001          0.128092706            10.587163          0.811264556    97.36011499999999           0.23783455           5.44024057

!
           350000000          0.256623087          -14.5623412          0.803881254           79.8910107          0.135509859   -8.952066839999999         0.0257653103          -130.416275
         0.803881254           79.8910107           0.25404022   -9.711316630000001         0.0254025984          -131.024086          0.134356908          -3.70146626
         0.135509859   -8.952066839999999         0.0254025984          -131.024086          0.248201781          -13.7554938           0.80603789    79.78446150000001
        0.0257653103          -130.416275          0.134356908          -3.70146626           0.80603789    79.78446150000001          0.246390623          -10.5189649

!
           360000000          0.255180883          -30.5540236          0.802056801    62.36303450000001          0.132608058          -23.2162223         0.0302848962          -163.851674
         0.802056801    62.36303450000001          0.253077326          -25.4248765         0.0300803706          -164.319978          0.132076306          -17.5714197
         0.132608058          -23.2162223         0.0300803706          -164.319978          0.246688234   -29.66981150000001          0.804201009           62.2302916
        0.0302848962          -163.851674          0.132076306          -17.5714197          0.804201009           62.2302916          0.245136895          -26.2335263

!
           370000000          0.244057267   -46.65386389999999   0.8034458560000001           44.7569779          0.121163802   -37.38704780000001         0.0338643914           163.969425
  0.8034458560000001           44.7569779          0.242534368          -40.9899698         0.0338060676           163.668386          0.121457281           -30.858939
         0.121163802   -37.38704780000001         0.0338060676           163.668386          0.235444606          -45.6373531          0.805503163    44.59896400000001
        0.0338643914           163.969425          0.121457281           -30.858939          0.805503163    44.59896400000001          0.234231607          -41.8189449

!
           380000000          0.223694814          -62.9854344          0.807268507           26.9876849          0.101573273            -51.15597         0.0362492094           132.671244
         0.807268507           26.9876849          0.222910306          -56.4436094         0.0363245735           132.550945          0.103111853          -42.9571024
         0.101573273            -51.15597         0.0363245735           132.550945          0.214942877   -61.75566379999999          0.809161999           26.8069809
        0.0362492094           132.671244          0.103111853          -42.9571024          0.809161999           26.8069809          0.214191462          -57.3074482

!
           390000000          0.195160982          -79.6035145          0.812275055           9.00268058         0.0749921677   -63.37676270000001  0.03724073530000001           102.199714
         0.812275055           9.00268058          0.195356251          -71.6748427         0.0374388204           102.272069  0.07869501230000001          -51.9936921
        0.0749921677   -63.37676270000001         0.0374388204           102.272069          0.186294212          -78.0312697          0.813931444    8.803788909999998