! Tyco Electronics Strada Whisper System
! FEXT_H1415_G1112
!! 
!! SYSTEM DESCRIPTION: Daughtercard-Footprint-Connector-Footprint-Daughtercard
!! PCB DESCRIPTION: DC: 140mil, Megtron7N, upper layer route, 15mil stub, 6-6-6mil 14" traces
!! CONNECTOR DESCRIPTION: Next-Gen STRADA Whisper Direct-Plug Orthogonal Connector
!! MODEL DESCRIPTION: Tyco Electronics System 4-port S-parameter 
!! MODEL STATUS: Developmental
!! MODEL GEOMETRY: Channel Model
!! MODEL FREQUENCY RANGE: DC to 60 GHz in 10 MHz frequency steps
!! MODEL EDGE RATE LIMITATION: 8.3 ps (Using conservative 0.5/Fmax rule of thumb)
!! 
!! TIME-DOMAIN TRANSFORM CAUTIONS: 
!! 1.) Do not simulate transient edge rates faster than the number listed above.  Edge rates faster than this number 
!!     contain significant spectral content at frequencies above the model's highest frequency. 
!! 2.) Even when simulating edge rates that are slower than the number listed above, be aware that the best time 
!!     resolution possible with a direct iFFT is (1 / 2Fmax).  As a result, time resolution is typically not adequate 
!!     for most time-domain simulations unless tricks such as windowing are used to minimize leakage and aliasing. 
!! 3.) Because the model has a uniform frequency step, a direct iFFT will result in an impulse that that has a time 
!!     length given by either (1 / Fstep) or (1 / 2Fstep), depending on the transform being used.  Care has been taken 
!!     in selecting the frequency step to ensure a settled impulse response for the model.  Therefore, convolution with 
!!     the model's impulse response should present no issues.  However, if directly concatenating s-parameter models 
!!     in the frequency domain a user must either interpolate necessary interim frequencies or complete impulse response 
!!     zero-padding.  Impulse response zero-padding is more difficult, but more accurate. 
!! 
!! PORT DEFINITIONS: 
!! Port   1  ----->  TX Side	H14     G11     RX Side  <-----  Port   3
!! Port   2  ----->  TX Side	H15     G12     RX Side  <-----  Port   4
!! 
!!!!!!!!!!!!!!!!!!!!!!!!!!!!!!!!!!!!!!!!!!!!!!!!!!!!!!!!!!!!!!!!!!!!!!!!!!!!!!!!!!!!!!!!!!!!!!!!!!!!!!!!!!!!!!!!!!!!!!!!
! Touchstone data
! Created: 10-Dec-2018 by IdEM R2012 (8.0.5)
# Hz S MA R 50

!
                   0         0.0571794386                    0      9.42447591e-007                  180        0.00188994223                    0      1.27462689e-006                  180
     9.42447591e-007                  180         0.0591706232                    0      6.60902231e-007                  180        0.00216694945                    0
       0.00188994223                    0      6.60902231e-007                  180          0.057288483                    0      1.18784619e-006                  180
     1.27462689e-006                  180        0.00216694945                    0      1.18784619e-006                  180         0.0595994625                    0

!
            10000000         0.0692904263           14.7478858 8.475015760000001e-006           75.1788779         0.0382171439    68.81419220000001      2.90749103e-006          -147.365908
8.475015760000001e-006           75.1788779  0.07141833849999998           14.4587835      1.65547488e-005           70.9102068         0.0374386058    68.35694839999999
        0.0382171439    68.81419220000001      1.65547488e-005           70.9102068  0.06955529979999998           14.9192198      1.98640233e-006           112.471033
     2.90749103e-006          -147.365908         0.0374386058    68.35694839999999      1.98640233e-006           112.471033  0.07184446730000001           14.3541206

!
            20000000         0.0907164853           14.6787237       1.6530699e-005           51.2408517  0.07199032330000001           52.0565344      5.13187111e-006          -167.288278
      1.6530699e-005           51.2408517         0.0932654062              14.3914      3.23514864e-005           48.7890807         0.0704015274           51.8567002
 0.07199032330000001           52.0565344      3.23514864e-005           48.7890807  0.09127562810000001           14.8753113 3.586564849999999e-006            79.788451
     5.13187111e-006          -167.288278         0.0704015274           51.8567002 3.586564849999999e-006            79.788451  0.09372727900000001              14.2786

!
            30000000          0.108995476           6.06741603      2.40754246e-005           29.9513427  0.09808281169999999           34.6562287       7.0218038e-006            164.78363
     2.40754246e-005           29.9513427          0.112109375    5.828366239999999      4.70290195e-005           27.9754323         0.0956676729           34.5722944
 0.09808281169999999           34.6562287      4.70290195e-005           27.9754323          0.109862358           6.26169865      5.65494314e-006           55.3966751
      7.0218038e-006            164.78363         0.0956676729           34.5722944      5.65494314e-006           55.3966751          0.112648949    5.723251039999999

!
            40000000           0.11839076          -6.37438476      3.10786364e-005           9.81200035          0.114238665    17.27257270000001      8.41888311e-006           133.904351
     3.10786364e-005           9.81200035          0.122097382          -6.57323683 6.050399150000001e-005           7.99031305          0.110964041           17.2920169
         0.114238665    17.27257270000001 6.050399150000001e-005           7.99031305          0.119560858   -6.172788359999999 8.217409229999999e-006           32.4532156
     8.41888311e-006           133.904351          0.110964041           17.2920169 8.217409229999999e-006           32.4532156          0.122742162          -6.67794713

!
            50000000          0.116441076          -20.7881871      3.76504275e-005          -9.55120743          0.119143731        -0.0559793526 9.292652349999999e-006           100.545838
     3.76504275e-005          -9.55120743          0.120706704            -20.94422      7.29401147e-005          -11.2973782          0.114965042          0.100463863
         0.119143731        -0.0559793526      7.29401147e-005          -11.2973782          0.117912272          -20.5592654      1.13126668e-005    9.269100460000001
9.292652349999999e-006           100.545838          0.114965042          0.100463863      1.13126668e-005    9.269100460000001          0.121476989          -21.0614163

!
            60000000          0.102199946          -36.5618353 4.395409990000001e-005          -28.3910989          0.112195218          -17.3669671      9.71703592e-006            64.019097
4.395409990000001e-005          -28.3910989          0.106960683           -36.630735 8.462691100000001e-005           -30.012477          0.107067691   -16.97841160000001
         0.112195218          -17.3669671 8.462691100000001e-005           -30.012477          0.103973345          -36.2682396      1.49419751e-005          -14.6479155
     9.71703592e-006            64.019097          0.107067691   -16.97841160000001      1.49419751e-005          -14.6479155          0.107873033   -36.78171769999999

!
            70000000         0.0757321196   -53.74519169999999      5.01239187e-005          -46.9319937         0.0935375094          -34.5445312      9.92511897e-006           23.2363015
     5.01239187e-005          -46.9319937         0.0809199909          -53.5479485 9.587437849999999e-005   -48.28672220000001  0.08744779779999999          -33.6679001
        0.0935375094          -34.5445312 9.587437849999999e-005   -48.28672220000001         0.0778056382          -53.2872684      1.90358417e-005          -39.4201059
     9.92511897e-006           23.2363015  0.08744779779999999          -33.6679001      1.90358417e-005          -39.4201059  0.08198735210000001   -53.77933259999999

!
            80000000         0.0383290366          -73.9868463 5.620749660000001e-005   -65.33964260000001         0.0644487188          -50.8083996       1.0386247e-005           -22.141541
5.620749660000001e-005   -65.33964260000001         0.0438762903          -72.4923252       0.000106953939   -66.23685570000001         0.0575074082   -48.52257699999999
        0.0644487188          -50.8083996       0.000106953939   -66.23685570000001         0.0406716849           -72.831941      2.34191589e-005          -64.9780538
      1.0386247e-005           -22.141541         0.0575074082   -48.52257699999999      2.34191589e-005          -64.9780538         0.0451112239          -72.9585821

!
            90000000         0.0087517147           123.906441      6.21637872e-005   -83.67237810000002  0.02803484020000001          -60.6218201      1.17099211e-005   -69.80950350000002
     6.21637872e-005   -83.67237810000002        0.00333130864           157.629606       0.000118098012          -83.9461432         0.0212371481           -48.824446
 0.02803484020000001          -60.6218201       0.000118098012          -83.9461432        0.00614051812           131.256726      2.78063003e-005          -91.0806376
     1.17099211e-005   -69.80950350000002         0.0212371481           -48.824446      2.78063003e-005          -91.0806376        0.00354143903          -178.170865

!
           100000000          0.057330546           81.1006332 6.794199719999999e-005          -101.870336         0.0154166401    56.45771069999999      1.42349616e-005          -115.462155
6.794199719999999e-005          -101.870336  0.05043048079999999           79.1305675        0.00012955515           -101.46686         0.0247944068           59.9606369
        0.0154166401    56.45771069999999        0.00012955515           -101.46686         0.0543099431    80.63078640000001      3.18634738e-005          -117.338091
     1.42349616e-005          -115.462155         0.0247944068           59.9606369      3.18634738e-005          -117.338091         0.0490055786           79.9985775

!
           110000000          0.105359957           61.2725028 7.360552430000001e-005          -119.819428         0.0531920946           59.0667595      1.78085216e-005           -156.63572
7.360552430000001e-005          -119.819428  0.09763272789999999           59.5671879       0.000141657079           -118.85001          0.063185372           56.4938445
        0.0531920946           59.0667595       0.000141657079           -118.85001          0.102105916           60.9369883      3.53268289e-005          -143.298602
     1.78085216e-005           -156.63572          0.063185372           56.4938445      3.53268289e-005          -143.298602          0.096089044    60.05556769999999

!
           120000000          0.147324288           43.0344534      7.93987616e-005          -137.461394  0.08657621400000001           44.5159686       2.2060284e-005           166.532223
     7.93987616e-005          -137.461394          0.138559751    41.45715750000001        0.00015482747          -136.182032         0.0968380231           41.9126511
 0.08657621400000001           44.5159686        0.00015482747          -136.182032          0.143846126    42.76003309999999      3.80975395e-005          -168.573883
      2.2060284e-005           166.532223         0.0968380231           41.9126511      3.80975395e-005          -168.573883          0.136933806           41.8439746

!
           130000000          0.179994007           25.5971749      8.56948114e-005          -154.870654          0.111743356    28.66015819999999      2.66810241e-005           133.011964
     8.56948114e-005          -154.870654          0.170052647           24.0926501       0.000169512929          -153.597451          0.122149188           25.9980015
         0.111743356    28.66015819999999       0.000169512929          -153.597451          0.176291799           25.3503287      4.02453532e-005           167.068419
     2.66810241e-005           133.011964          0.122149188           25.9980015      4.02453532e-005           167.068419          0.168363486           24.4465442

!
           140000000          0.201750459    8.749634919999998      9.28693906e-005          -172.251874          0.127298958           12.8244279      3.14844335e-005           101.794786
     9.28693906e-005          -172.251874          0.190560012           7.28876292       0.000186083559          -171.262597          0.137740712           9.95742495
         0.127298958           12.8244279       0.000186083559          -171.262597           0.19780819           8.51351086      4.19366165e-005           143.685799
     3.14844335e-005           101.794786          0.137740712           9.95742495      4.19366165e-005           143.685799          0.188816404    7.642302269999999

!
           150000000          0.212084574   -7.680989210000001       0.000101176412           170.120777          0.132839803          -2.78103028 3.635435639999999e-005           72.0580769
      0.000101176412           170.120777          0.199619471           -9.1235719       0.000204737653           170.650462          0.143219155          -6.02729063
         0.132839803          -2.78103028       0.000204737653           170.650462          0.207872319   -7.916022650000001      4.33487014e-005           121.197302
3.635435639999999e-005           72.0580769          0.143219155          -6.02729063      4.33487014e-005           121.197302          0.197823446   -8.745819540000001

!
           160000000          0.211079045   -23.85878470000001       0.000110651853           151.979161          0.128399989          -18.1548161      4.11658293e-005           43.1490672
      0.000110651853           151.979161          0.197338092          -25.3118253       0.000225395593           151.987456           0.13861466          -22.0223447
         0.128399989          -18.1548161       0.000225395593           151.987456          0.206559537   -24.09817410000001      4.46070853e-005           99.4408935
     4.11658293e-005           43.1490672           0.13861466          -22.0223447      4.46070853e-005           99.4408935          0.195489843          -24.8829988

!
           170000000          0.199179503   -39.89054479999999       0.000121040188           133.126836          0.114281078          -33.2071821      4.57150978e-005           14.5629438
      0.000121040188           133.126836          0.184174497          -41.3862094       0.000247566723           132.636466          0.124212199          -38.1057337
         0.114281078          -33.2071821       0.000247566723           132.636466          0.194317215            -40.13543      4.57471412e-005           78.2387245
     4.57150978e-005           14.5629438          0.124212199          -38.1057337      4.57471412e-005           78.2387245          0.182278851          -40.8683703

!
           180000000          0.177326186          -55.7456837       0.000131758007           113.489842         0.0912911797          -47.3967074      4.96754191e-005          -14.0604231
      0.000131758007           113.489842          0.161087247           -57.309917        0.00027023298           112.559699          0.100762565   -54.19145590000001
        0.0912911797          -47.3967074        0.00027023298           112.559699          0.172097847           -55.988592      4.67008515e-005    57.47658680000001
     4.96754191e-005          -14.0604231          0.100762565   -54.19145590000001      4.67008515e-005    57.47658680000001          0.159162524   -56.63927260000001

!
           190000000          0.147348917          -71.1329282        0.00014195274            93.148884         0.0613675393          -58.5205098      5.26007835e-005          -42.9281447
       0.00014195274            93.148884          0.129944956           -72.745665       0.000291875907           91.8271304         0.0699259123          -69.6640829
        0.0613675393          -58.5205098       0.000291875907           91.8271304          0.141754181           -71.341731      4.73303764e-005            37.195879
     5.26007835e-005          -42.9281447         0.0699259123          -69.6640829      4.73303764e-005            37.195879          0.128037498   -71.79767320000001

!
           200000000          0.112360837          -85.2732745       0.000150716565           72.3377031         0.0295478842          -54.0976805      5.40016171e-005          -72.0946294
      0.000150716565           72.3377031  0.09393077380000001          -86.6975032        0.00031078715           70.6304753         0.0347388984   -81.16332300000001
        0.0295478842          -54.0976805        0.00031078715           70.6304753          0.106434643          -85.3310705      4.75397468e-005           17.6575269
     5.40016171e-005          -72.0946294         0.0347388984   -81.16332300000001      4.75397468e-005           17.6575269  0.09214909260000001          -85.1838903

!
           210000000         0.0768185985   -96.33168360000001       0.000157413991    51.38974749999999         0.0235901713           14.6083724      5.34822764e-005          -101.499302
      0.000157413991    51.38974749999999         0.0576808778          -96.1990186 0.0003256302709999999    49.25246080000001        0.00763929129          -3.10981743
        0.0235901713           14.6083724 0.0003256302709999999    49.25246080000001  0.07067348699999999          -95.7742779      4.74487569e-005         -0.706267016
     5.34822764e-005          -101.499302        0.00763929129          -3.10981743      4.74487569e-005         -0.706267016         0.0563215477   -93.28684560000001

!
           220000000         0.0462909637   -99.70092200000001       0.000161934117           30.6409139         0.0509891522    28.68855350000001 5.086554910000001e-005          -131.058293
      0.000161934117           30.6409139         0.0280366577   -89.16169890000001       0.000335936338           27.9914205         0.0358831841    39.86331610000001
        0.0509891522    28.68855350000001       0.000335936338           27.9914205         0.0404010289   -96.39664240000001       4.7519498e-005          -17.5256881
5.086554910000001e-005          -131.058293         0.0358831841    39.86331610000001       4.7519498e-005          -17.5256881         0.0282348534   -82.33745930000001

!
           230000000         0.0275529004   -86.19319670000002       0.000164684419           10.3329015         0.0759952666            18.708098      4.62133886e-005          -160.796129
      0.000164684419           10.3329015         0.0199740321           -41.208359       0.000342171836           7.07896478         0.0611833329           27.6701461
        0.0759952666            18.708098       0.000342171836           7.07896478         0.0241651651           -73.672741      4.84943076e-005   -32.86155290000001
     4.62133886e-005          -160.796129         0.0611833329           27.6701461      4.84943076e-005   -32.86155290000001         0.0232486582          -37.8628619

!
           240000000          0.023354254          -66.1258844       0.000166349234           -9.4354268          0.092108765            4.3401935      3.97391751e-005            168.99613
      0.000166349234           -9.4354268         0.0285717801          -23.6488203       0.000345362275          -13.3636949         0.0769593697           12.6933256
         0.092108765            4.3401935       0.000345362275          -13.3636949          0.024378104            -50.11211      5.11193877e-005   -47.43152170000001
     3.97391751e-005            168.99613         0.0769593697           12.6933256      5.11193877e-005   -47.43152170000001         0.0321444884           -25.226545

!
           250000000         0.0215443419   -68.20084660000001       0.000167597089          -28.6976557         0.0973136403          -11.3550393       3.1711209e-005           137.478374
      0.000167597089          -28.6976557         0.0306633504          -29.3470947       0.000346587225          -33.3166068         0.0816994786          -2.34195901
        0.0973136403          -11.3550393       0.000346587225          -33.3166068         0.0243623211          -52.4346253      5.58171745e-005          -62.3612766
      3.1711209e-005           137.478374         0.0816994786          -2.34195901      5.58171745e-005          -62.3612766         0.0341246307          -32.3167296

!
           260000000         0.0139154039          -101.960949       0.000168880638          -47.5709037         0.0909787198          -27.4948458      2.24924456e-005           102.257371
      0.000168880638          -47.5709037         0.0214448863          -39.2517867 0.0003466435279999999          -52.8173127  0.07513281719999999          -16.2332669
        0.0909787198          -27.4948458 0.0003466435279999999          -52.8173127         0.0155604949          -74.9642279 6.253038580000002e-005          -78.6009454
     2.24924456e-005           102.257371  0.07513281719999999          -16.2332669 6.253038580000002e-005          -78.6009454         0.0248026875          -44.8391672

!
           270000000         0.0176369229           160.944337       0.000170361734          -66.1915865          0.073529471          -43.4721322      1.31401623e-005           53.8906237
      0.000170361734          -66.1915865        0.00285987996           19.5877509       0.000345972061   -71.90836710000001         0.0583797413   -26.55296660000001
         0.073529471          -43.4721322       0.000345972061   -71.90836710000001         0.0105644671           167.689756 7.077639739999999e-005   -96.56546539999999
     1.31401623e-005           53.8906237         0.0583797413   -26.55296660000001 7.077639739999999e-005   -96.56546539999999        0.00399126824          -54.9908162

!
           280000000         0.0457827441           118.903595       0.000171953445          -84.6517139  0.04661454290000001          -57.6921588 9.687634820000001e-006   -36.74511040000001
      0.000171953445          -84.6517139         0.0305124486           96.8885822       0.000344814213          -90.5968601         0.0358154309          -23.4423922
 0.04661454290000001          -57.6921588       0.000344814213          -90.5968601         0.0386333065            116.09819 7.978300270000001e-005          -116.175427
9.687634820000001e-006   -36.74511040000001         0.0358154309          -23.4423922 7.978300270000001e-005          -116.175427         0.0268517199           101.954119

!
           290000000         0.0832578433           95.5566894       0.000173477986           -102.95578         0.0141466486   -53.82995960000001      1.82496603e-005           -106.90391
      0.000173477986           -102.95578         0.0682370061           82.9552042       0.000343508737          -108.844252         0.0278518283    22.46491990000001
        0.0141466486   -53.82995960000001       0.000343508737          -108.844252  0.07617910059999999           93.5502355       8.8649146e-005          -137.045885
     1.82496603e-005           -106.90391         0.0278518283    22.46491990000001       8.8649146e-005          -137.045885         0.0646684994    85.50090969999999

!
           300000000          0.124354283           75.7710027       0.000174899562          -121.026562         0.0254574427           62.0278105      3.00635134e-005          -147.185738
      0.000174899562          -121.026562          0.108860217           66.6724644       0.000342763775          -126.599335         0.0529750862           45.2410961
        0.0254574427           62.0278105       0.000342763775          -126.599335          0.117252402           74.3040695 9.656445669999999e-005          -158.651331
     3.00635134e-005          -147.185738         0.0529750862           45.2410961 9.656445669999999e-005          -158.651331          0.105367558           68.4159085

!
           310000000          0.164387587    57.29156669999999       0.000176498532           -138.77042  0.06008697490000001           54.3520366      4.19801006e-005          -179.678887
      0.000176498532           -138.77042          0.147930344           49.9471502       0.000343695788          -143.862572  0.08476541260000001    39.71485360000001
 0.06008697490000001           54.3520366       0.000343695788          -143.862572          0.157242706           56.1286396       0.000103047214           179.539995
     4.19801006e-005          -179.678887  0.08476541260000001    39.71485360000001       0.000103047214           179.539995          0.144534917            51.324172

!
           320000000          0.199447629           39.6414802       0.000178850364          -156.166129  0.09023193490000001           40.1199294      5.32081725e-005           150.917107
      0.000178850364          -156.166129          0.181721718           33.3198296       0.000347572581          -160.738037          0.112930419           27.6789693
 0.09023193490000001           40.1199294       0.000347572581          -160.738037          0.192245473           38.6539822       0.000108063724           157.954639
     5.32081725e-005           150.917107          0.112930419           27.6789693       0.000108063724           157.954639          0.178442176           34.5085116

!
           330000000          0.226881948           22.6740557       0.000182626719          -173.317479           0.11327308           25.2505914      6.35251495e-005           123.250366
      0.000182626719          -173.317479          0.207752107    16.98965370000001       0.000355450579          -177.433049          0.134184648           13.8047818
          0.11327308           25.2505914       0.000355450579          -177.433049          0.219590205           21.7881062       0.000111955297           136.847442
     6.35251495e-005           123.250366          0.134184648           13.8047818       0.000111955297           136.847442          0.204595631           18.0850387

!
           340000000          0.245270048           6.27103666       0.000188364364           169.557782          0.128092706            10.587163      7.29692913e-005           96.6985528
      0.000188364364           169.557782          0.224713919   0.9720169459999998       0.000367943121           165.788778           0.14721313  -0.6732880350000001
         0.128092706            10.587163       0.000367943121           165.788778           0.23783455           5.44024057        0.00011524728           116.291177
     7.29692913e-005           96.6985528           0.14721313  -0.6732880350000001        0.00011524728           116.291177          0.221677309           2.03732163

!
           350000000           0.25404022   -9.711316630000001       0.000196305842           152.182937          0.134356908          -3.70146626      8.16585512e-005           70.8330016
      0.000196305842           152.182937          0.232075633           -14.826027       0.000385158066           148.662924          0.151581763           -15.435805
         0.134356908          -3.70146626       0.000385158066           148.662924          0.246390623          -10.5189649       0.000118457867           96.2049032
     8.16585512e-005           70.8330016          0.151581763           -15.435805       0.000118457867           96.2049032          0.229151003          -13.7384219

!
           360000000          0.253077326          -25.4248765        0.00020630898           134.287631          0.132076306          -17.5714197      8.96488425e-005           45.2951837
       0.00020630898           134.287631          0.229704187   -30.54466719999999       0.000406679703            130.96212          0.147207843           -30.480833
         0.132076306          -17.5714197       0.000406679703            130.96212          0.245136895          -26.2335263       0.000121955434            76.398737
     8.96488425e-005           45.2951837          0.147207843           -30.480833       0.000121955434            76.398737          0.226886432   -29.38090040000001

!
           370000000          0.242534368          -40.9899698        0.00021778644           115.664915          0.121457281           -30.858939 9.682984370000001e-005           19.7771287
       0.00021778644           115.664915          0.217705441          -46.3161247       0.000431489701           112.519731           0.13418051          -45.9099451
         0.121457281           -30.858939       0.000431489701           112.519731          0.234231607          -41.8189449       0.000125849897           56.6290595
9.682984370000001e-005           19.7771287           0.13418051          -45.9099451       0.000125849897           56.6290595          0.215000446   -45.00938480000001

!
           380000000          0.222910306          -56.4436094       0.000229682614           96.2176614          0.103111853          -42.9571024        0.00010285576   -5.964817300000001
      0.000229682614           96.2176614           0.19653644          -62.2084299       0.000457853845           93.2521474          0.112898378          -61.8205822
         0.103111853          -42.9571024       0.000457853845           93.2521474          0.214191462          -57.3074482       0.000129907404           36.6716983
       0.00010285576   -5.964817300000001          0.112898378          -61.8205822       0.000129907404           36.6716983          0.193970183          -60.6625879

!
           390000000          0.195356251          -71.6748427       0.000240569539           75.9938789  0.07869501230000001          -51.9936921       0.000107129451          -32.0790328
      0.000240569539           75.9938789          0.167342971          -78.1614895 0.0004833461710000001           73.1848668         0.0844307606          -78.2394104