! Tyco Electronics Strada Whisper System
! FEXT_H89_G1112
!! 
!! SYSTEM DESCRIPTION: Daughtercard-Footprint-Connector-Footprint-Daughtercard
!! PCB DESCRIPTION: DC: 140mil, Megtron7N, upper layer route, 15mil stub, 6-6-6mil 14" traces
!! CONNECTOR DESCRIPTION: Next-Gen STRADA Whisper Direct-Plug Orthogonal Connector
!! MODEL DESCRIPTION: Tyco Electronics System 4-port S-parameter 
!! MODEL STATUS: Developmental
!! MODEL GEOMETRY: Channel Model
!! MODEL FREQUENCY RANGE: DC to 60 GHz in 10 MHz frequency steps
!! MODEL EDGE RATE LIMITATION: 8.3 ps (Using conservative 0.5/Fmax rule of thumb)
!! 
!! TIME-DOMAIN TRANSFORM CAUTIONS: 
!! 1.) Do not simulate transient edge rates faster than the number listed above.  Edge rates faster than this number 
!!     contain significant spectral content at frequencies above the model's highest frequency. 
!! 2.) Even when simulating edge rates that are slower than the number listed above, be aware that the best time 
!!     resolution possible with a direct iFFT is (1 / 2Fmax).  As a result, time resolution is typically not adequate 
!!     for most time-domain simulations unless tricks such as windowing are used to minimize leakage and aliasing. 
!! 3.) Because the model has a uniform frequency step, a direct iFFT will result in an impulse that that has a time 
!!     length given by either (1 / Fstep) or (1 / 2Fstep), depending on the transform being used.  Care has been taken 
!!     in selecting the frequency step to ensure a settled impulse response for the model.  Therefore, convolution with 
!!     the model's impulse response should present no issues.  However, if directly concatenating s-parameter models 
!!     in the frequency domain a user must either interpolate necessary interim frequencies or complete impulse response 
!!     zero-padding.  Impulse response zero-padding is more difficult, but more accurate. 
!! 
!! PORT DEFINITIONS: 
!! Port   1  ----->  TX Side	H8     G11     RX Side  <-----  Port   3
!! Port   2  ----->  TX Side	H9     G12     RX Side  <-----  Port   4
!! 
!!!!!!!!!!!!!!!!!!!!!!!!!!!!!!!!!!!!!!!!!!!!!!!!!!!!!!!!!!!!!!!!!!!!!!!!!!!!!!!!!!!!!!!!!!!!!!!!!!!!!!!!!!!!!!!!!!!!!!!!! Touchstone data
! Created: 10-Dec-2018 by IdEM R2012 (8.0.5)
# Hz S MA R 50

!
                   0         0.0571794386                    0      1.03027447e-006                  180        0.00188994223                    0      6.70072652e-007                  180
     1.03027447e-006                  180         0.0555685165                    0      1.07109433e-006                  180         0.0015383455                    0
       0.00188994223                    0      1.07109433e-006                  180          0.057288483                    0      9.30721645e-007                  180
     6.70072652e-007                  180         0.0015383455                    0      9.30721645e-007                  180         0.0557709008                    0

!
            10000000         0.0692904263           14.7478858      4.48156555e-006          -128.201331         0.0382171439    68.81419220000001      7.92900673e-006           79.1162954
     4.48156555e-006          -128.201331         0.0682148761            16.006148      4.69267777e-006           88.0026062         0.0379870415            69.560093
        0.0382171439    68.81419220000001      4.69267777e-006           88.0026062  0.06955529979999998           14.9192198      1.59548456e-006           122.244817
     7.92900673e-006           79.1162954         0.0379870415            69.560093      1.59548456e-006           122.244817         0.0686377997           16.2170265

!
            20000000         0.0907164853           14.6787237 8.466330410000001e-006          -146.651216  0.07199032330000001           52.0565344      1.63005974e-005           60.3818717
8.466330410000001e-006          -146.651216  0.09058272030000002           16.2777285      9.58822986e-006           65.2202099  0.07168790849999999           52.8015288
 0.07199032330000001           52.0565344      9.58822986e-006           65.2202099  0.09127562810000001           14.8753113      3.19888163e-006           93.1974175
     1.63005974e-005           60.3818717  0.07168790849999999           52.8015288      3.19888163e-006           93.1974175         0.0914241232           16.5049653

!
            30000000          0.108995476           6.06741603        1.191457e-005          -169.095544  0.09808281169999999           34.6562287      2.55340891e-005           42.4351126
       1.191457e-005          -169.095544          0.109950439    7.858444170000002      1.51661783e-005    45.61693510000001  0.09794853839999999           35.5783392
 0.09808281169999999           34.6562287      1.51661783e-005    45.61693510000001          0.109862358           6.26169865 5.629411470000001e-006           68.9129432
     2.55340891e-005           42.4351126  0.09794853839999999           35.5783392 5.629411470000001e-006           68.9129432          0.111238495           8.06492778

!
            40000000           0.11839076          -6.37438476      1.45738246e-005           167.609264          0.114238665    17.27257270000001      3.58458534e-005            23.944441
     1.45738246e-005           167.609264          0.120680375          -4.32167247      2.15286877e-005           25.9273448          0.114599644           18.4340737
         0.114238665    17.27257270000001      2.15286877e-005           25.9273448          0.119560858   -6.172788359999999      8.95137231e-006           44.2656379
     3.58458534e-005            23.944441          0.114599644           18.4340737      8.95137231e-006           44.2656379          0.122420258          -4.13163432

!
            50000000          0.116441076          -20.7881871      1.61921654e-005           144.127991          0.119143731        -0.0559793526       4.7344546e-005           4.61786936
     1.61921654e-005           144.127991          0.120394327          -18.3455075      2.87339423e-005           5.52267871          0.120386226           1.39065136
         0.119143731        -0.0559793526      2.87339423e-005           5.52267871          0.117912272          -20.5592654      1.32385192e-005           18.5248402
      4.7344546e-005           4.61786936          0.120386226           1.39065136      1.32385192e-005           18.5248402          0.122595001          -18.1642572

!
            60000000          0.102199946          -36.5618353      1.64646587e-005           120.992251          0.112195218          -17.3669671      5.99886032e-005          -15.6856404
     1.64646587e-005           120.992251          0.108175984   -33.51398059999999         3.67636e-005          -15.8463401          0.114726554          -15.5962111
         0.112195218          -17.3669671         3.67636e-005          -15.8463401          0.103973345          -36.2682396      1.85273295e-005   -8.456699909999999
     5.99886032e-005          -15.6856404          0.114726554          -15.5962111      1.85273295e-005   -8.456699909999999          0.110851308          -33.3346161

!
            70000000         0.0757321196   -53.74519169999999      1.50966533e-005           99.5396743         0.0935375094          -34.5445312      7.34447995e-005          -37.0475111
     1.50966533e-005           99.5396743         0.0840295579          -49.6041723      4.54131892e-005          -38.3326754         0.0977041921          -32.4355835
        0.0935375094          -34.5445312      4.54131892e-005          -38.3326754         0.0778056382          -53.2872684      2.47215436e-005   -36.71971070000001
     7.34447995e-005          -37.0475111         0.0977041921          -32.4355835      2.47215436e-005   -36.71971070000001  0.08719178239999999          -49.4179431

!
            80000000         0.0383290366          -73.9868463       1.2126733e-005           83.9334326         0.0644487188          -50.8083996      8.69259341e-005          -59.4215939
      1.2126733e-005           83.9334326         0.0489895155          -66.6435331 5.415278690000001e-005   -61.94171000000001          0.070393074           -48.478752
        0.0644487188          -50.8083996 5.415278690000001e-005   -61.94171000000001         0.0406716849           -72.831941      3.14757028e-005   -66.15926210000001
     8.69259341e-005          -59.4215939          0.070393074           -48.478752      3.14757028e-005   -66.15926210000001         0.0526390991   -66.41901710000001

!
            90000000         0.0087517147           123.906441      9.10191129e-006           86.3985508  0.02803484020000001          -60.6218201 9.920835829999998e-005           -82.542815
     9.10191129e-006           86.3985508         0.0055365858          -89.8543572      6.21118958e-005          -86.4235783         0.0354658661          -59.8619726
 0.02803484020000001          -60.6218201      6.21118958e-005          -86.4235783        0.00614051812           131.256726      3.81497341e-005          -96.4399944
9.920835829999998e-005           -82.542815         0.0354658661          -59.8619726      3.81497341e-005          -96.4399944 0.009637929740000001          -86.8371456

!
           100000000          0.057330546           81.1006332      1.08608483e-005           105.259274         0.0154166401    56.45771069999999       0.000109014752           -105.91508
     1.08608483e-005           105.259274           0.04244174           80.0293463        6.834117e-005          -111.252453 0.009887661189999999    29.40451390000001
        0.0154166401    56.45771069999999        6.834117e-005          -111.252453         0.0543099431    80.63078640000001      4.39478444e-005          -126.990631
      0.000109014752           -105.91508 0.009887661189999999    29.40451390000001      4.39478444e-005          -126.990631         0.0379003508           80.3157427

!
           110000000          0.105359957           61.2725028      1.78668796e-005           101.800361         0.0531920946           59.0667595       0.000115624262          -128.935397
     1.78668796e-005           101.800361  0.08989506450000001    61.89695590000001      7.22654516e-005          -135.761589  0.04507158580000001           59.1503623
        0.0531920946           59.0667595      7.22654516e-005          -135.761589          0.102105916           60.9369883      4.82290504e-005          -157.124262
      0.000115624262          -128.935397  0.04507158580000001           59.1503623      4.82290504e-005          -157.124262         0.0849847077    62.11339859999999

!
           120000000          0.147324288           43.0344534      2.64423445e-005    84.11937480000002  0.08657621400000001           44.5159686       0.000119213949          -151.098858
     2.64423445e-005    84.11937480000002          0.132196066           44.3215838 7.395831809999999e-005          -159.373668  0.07913265339999999           46.2196681
 0.08657621400000001           44.5159686 7.395831809999999e-005          -159.373668          0.143846126    42.76003309999999 5.076905199999999e-005           173.766416
      0.000119213949          -151.098858  0.07913265339999999           46.2196681 5.076905199999999e-005           173.766416          0.126969865           44.5401766

!
           130000000          0.179994007           25.5971749      3.49774782e-005           62.1930867          0.111743356    28.66015819999999       0.000120631394          -172.148162
     3.49774782e-005           62.1930867          0.165935775            27.204344      7.39925617e-005           178.223717          0.105717757           30.7833821
         0.111743356    28.66015819999999      7.39925617e-005           178.223717          0.176291799           25.3503287      5.17636411e-005           146.057882
      0.000120631394          -172.148162          0.105717757           30.7833821      5.17636411e-005           146.057882          0.160427963           27.4397341

!
           140000000          0.201750459    8.749634919999998 4.298612100000001e-005           39.2175275          0.127298958           12.8244279       0.000120866833           167.917211
4.298612100000001e-005           39.2175275          0.189229145           10.5170124 7.304904460000002e-005           157.057118          0.123086513           15.0644007
         0.127298958           12.8244279 7.304904460000002e-005           157.057118           0.19780819           8.51351086       5.1620171e-005           119.861799
      0.000120866833           167.917211          0.123086513           15.0644007       5.1620171e-005           119.861799          0.183448747           10.7810864

!
           150000000          0.212084574   -7.680989210000001      5.04541661e-005           16.1573399          0.132839803          -2.78103028       0.000120661618           148.942412
     5.04541661e-005           16.1573399          0.201352293          -5.84410616 7.161462230000001e-005           136.980008          0.130621368         -0.561287844
         0.132839803          -2.78103028 7.161462230000001e-005           136.980008          0.207872319   -7.916022650000001      5.07311487e-005    95.08598940000002
      0.000120661618           148.942412          0.130621368         -0.561287844      5.07311487e-005    95.08598940000002          0.195285865   -5.535587239999999

!
           160000000          0.211079045   -23.85878470000001 5.752800810000001e-005   -6.813063929999999          0.128399989          -18.1548161        0.00012041014           130.747891
5.752800810000001e-005   -6.813063929999999          0.202245674          -22.0248398      6.99025046e-005            117.83764          0.128229603          -16.0704176
         0.128399989          -18.1548161      6.99025046e-005            117.83764          0.206559537   -24.09817410000001      4.93403865e-005    71.53488150000001
       0.00012041014           130.747891          0.128229603          -16.0704176      4.93403865e-005    71.53488150000001          0.195866703          -21.6475724

!
           170000000          0.199179503   -39.89054479999999      6.43073976e-005           -29.822786          0.114281078          -33.2071821       0.000120279786           113.229399
     6.43073976e-005           -29.822786          0.192234398   -38.15434179999999 6.795265519999998e-005    99.61770490000002          0.116101959          -31.4508662
         0.114281078          -33.2071821 6.795265519999998e-005    99.61770490000002          0.194317215            -40.13543      4.74994141e-005            49.027883
      0.000120279786           113.229399          0.116101959          -31.4508662      4.74994141e-005            49.027883          0.185517129          -37.6676204

!
           180000000          0.177326186          -55.7456837 7.070108720000001e-005          -53.0804422         0.0912911797          -47.3967074       0.000120448005           96.3949564
7.070108720000001e-005          -53.0804422          0.172080832   -54.27388140000001      6.58523867e-005           82.5403318         0.0948457571   -46.43386650000001
        0.0912911797          -47.3967074      6.58523867e-005           82.5403318          0.172097847           -55.988592      4.50958578e-005           27.5545253
      0.000120448005           96.3949564         0.0948457571   -46.43386650000001      4.50958578e-005           27.5545253          0.165017702          -53.6034986

!
           190000000          0.147348917          -71.1329282 7.635383940000001e-005          -76.7303754         0.0613675393          -58.5205098       0.000121369597           80.3048943
7.635383940000001e-005          -76.7303754          0.143309481           -70.241192      6.40300948e-005           66.9978266         0.0659278081          -59.7992325
        0.0613675393          -58.5205098      6.40300948e-005           66.9978266          0.141754181           -71.341731      4.19788403e-005           7.48849806
      0.000121369597           80.3048943         0.0659278081          -59.7992325      4.19788403e-005           7.48849806          0.135932769   -69.23605720000001

!
           200000000          0.112360837          -85.2732745 8.069639370000001e-005          -100.756747         0.0295478842          -54.0976805       0.000123903849           64.8954969
8.069639370000001e-005          -100.756747          0.108579203          -85.5633476      6.34611455e-005           53.1801759         0.0325999722           -64.697739
        0.0295478842          -54.0976805      6.34611455e-005           53.1801759          0.106434643          -85.3310705      3.82278374e-005          -10.1734253
      0.000123903849           64.8954969         0.0325999722           -64.697739      3.82278374e-005          -10.1734253          0.100994316           -83.863016

!
           210000000         0.0768185985   -96.33168360000001 8.314020619999999e-005           -124.96216         0.0235901713           14.6083724       0.000129068333           49.7911903
8.314020619999999e-005           -124.96216  0.07176876359999999          -98.9183414      6.54261647e-005           40.4498699         0.0149930082           11.3992917
        0.0235901713           14.6083724      6.54261647e-005           40.4498699  0.07067348699999999          -95.7742779      3.45534236e-005          -23.7882115
      0.000129068333           49.7911903         0.0149930082           11.3992917      3.45534236e-005          -23.7882115         0.0642529186          -95.4204536

!
           220000000         0.0462909637   -99.70092200000001      8.33084687e-005          -149.033009         0.0509891522    28.68855350000001       0.000137478214           34.3521885
     8.33084687e-005          -149.033009         0.0377343358          -105.728101      7.07201744e-005            27.289506         0.0435919303           38.5661315
        0.0509891522    28.68855350000001      7.07201744e-005            27.289506         0.0404010289   -96.39664240000001      3.26223481e-005          -32.1613682
      0.000137478214           34.3521885         0.0435919303           38.5661315      3.26223481e-005          -32.1613682         0.0313614602   -95.31099290000002

!
           230000000         0.0275529004   -86.19319670000002      8.11207307e-005          -172.633743         0.0759952666            18.708098       0.000148999405           17.9909116
     8.11207307e-005          -172.633743         0.0144339335          -77.9498141      7.91130635e-005           12.3329526  0.07139485249999999           28.4078516
        0.0759952666            18.708098      7.91130635e-005           12.3329526         0.0241651651           -73.672741      3.45899684e-005          -37.5458097
      0.000148999405           17.9909116  0.07139485249999999           28.4078516      3.45899684e-005          -37.5458097         0.0166057024          -44.2760998

!
           240000000          0.023354254          -66.1258844      7.66896403e-005              164.573          0.092108765            4.3401935       0.000162928462   0.4066553310000001
     7.66896403e-005              164.573         0.0184701926          -19.4670159      8.97088879e-005   -4.860587810000001         0.0910143945           13.9945905
         0.092108765            4.3401935      8.97088879e-005   -4.860587810000001          0.024378104            -50.11211      4.14480585e-005          -45.4558447
      0.000162928462   0.4066553310000001         0.0910143945           13.9945905      4.14480585e-005          -45.4558447         0.0277270388          -13.8478016

!
           250000000         0.0215443419   -68.20084660000001       7.0202275e-005           143.059289         0.0973136403          -11.3550393        0.00017832781          -18.4562531
      7.0202275e-005           143.059289         0.0252314469          -16.4332943       0.000101542139          -24.0967192          0.100388984          -1.39518301
        0.0973136403          -11.3550393       0.000101542139          -24.0967192         0.0243623211          -52.4346253      5.24992625e-005   -58.74150010000001
       0.00017832781          -18.4562531          0.100388984          -1.39518301      5.24992625e-005   -58.74150010000001         0.0350228517          -17.8637866

!
           260000000         0.0139154039          -101.960949      6.20239484e-005           123.756633         0.0909787198          -27.4948458       0.000194099002   -38.54613760000001
     6.20239484e-005           123.756633         0.0218600716          -21.3480197       0.000113729766          -45.0535986  0.09871766220000001          -16.8915362
        0.0909787198          -27.4948458       0.000113729766          -45.0535986         0.0155604949          -74.9642279 6.653915190000001e-005          -76.8076646
      0.000194099002   -38.54613760000001  0.09871766220000001          -16.8915362 6.653915190000001e-005          -76.8076646          0.031626711   -27.29640210000001

!
           270000000         0.0176369229           160.944337      5.32229648e-005           108.523018          0.073529471          -43.4721322       0.000208829959   -59.75833359999999
     5.32229648e-005           108.523018 0.009467617839999998           1.42997505       0.000125281015          -67.4613796  0.08612525040000001          -31.8617463
         0.073529471          -43.4721322       0.000125281015          -67.4613796         0.0105644671           167.689756 8.235608710000001e-005          -98.3577801
      0.000208829959   -59.75833359999999  0.08612525040000001          -31.8617463 8.235608710000001e-005          -98.3577801         0.0172391395   -30.48749460000001

!
           280000000         0.0457827441           118.903595      4.65376725e-005           99.8412354  0.04661454290000001          -57.6921588       0.000220734573          -81.8955989
     4.65376725e-005           99.8412354         0.0222188795            88.788771       0.000134933779           -91.042847         0.0638165992          -44.8256451
 0.04661454290000001          -57.6921588       0.000134933779           -91.042847         0.0386333065            116.09819 9.850618539999998e-005          -122.356815
      0.000220734573          -81.8955989         0.0638165992          -44.8256451 9.850618539999998e-005          -122.356815         0.0119528111    76.95988869999999

!
           290000000         0.0832578433           95.5566894      4.62948009e-005    96.44845549999999         0.0141466486   -53.82995960000001       0.000227993857          -104.608475
     4.62948009e-005    96.44845549999999         0.0558558205    85.46788479999999       0.000141307289          -115.403139         0.0349810874          -48.8708774
        0.0141466486   -53.82995960000001       0.000141307289          -115.403139  0.07617910059999999           93.5502355       0.000113214848          -147.957411
      0.000227993857          -104.608475         0.0349810874          -48.8708774       0.000113214848          -147.957411          0.044791886           86.1761566

!
           300000000          0.124354283           75.7710027      5.40601073e-005           90.1119968         0.0254574427           62.0278105       0.000229503874          -127.398442
     5.40601073e-005           90.1119968  0.09533838450000001           72.1691555       0.000143422538           -139.99361         0.0171556258           11.0701901
        0.0254574427           62.0278105       0.000143422538           -139.99361          0.117252402           74.3040695       0.000124725342          -174.354633
      0.000229503874          -127.398442         0.0171556258           11.0701901       0.000124725342          -174.354633         0.0842102406           73.3632274

!
           310000000          0.164387587    57.29156669999999       6.6338035e-005           76.6672143  0.06008697490000001           54.3520366       0.000225532602          -149.723239
      6.6338035e-005           76.6672143          0.135923418           56.6750211       0.000141250984          -164.199887         0.0437795144    46.29237980000001
 0.06008697490000001           54.3520366       0.000141250984          -164.199887          0.157242706           56.1286396       0.000131922717           159.217809
      0.000225532602          -149.723239         0.0437795144    46.29237980000001       0.000131922717           159.217809          0.124829512           57.8257207

!
           320000000          0.199447629           39.6414802 7.920035800000001e-005           58.3578376  0.09023193490000001           40.1199294       0.000217657912          -171.159235
7.920035800000001e-005           58.3578376          0.173390597    40.55311880000001       0.000135783196           172.490149         0.0750616366           39.0876604
 0.09023193490000001           40.1199294       0.000135783196           172.490149          0.192245473           38.6539822       0.000134734131           133.392776
      0.000217657912          -171.159235         0.0750616366           39.0876604       0.000134734131           133.392776          0.162393188           41.6319787

!
           330000000          0.226881948           22.6740557      9.06778863e-005    37.83063960000001           0.11327308           25.2505914       0.000207979194           168.481098
     9.06778863e-005    37.83063960000001          0.204497249           24.3739412        0.00012851549           150.345942          0.101115022           26.3421164
          0.11327308           25.2505914        0.00012851549           150.345942          0.219590205           21.7881062        0.00013398029            108.58039
      0.000207979194           168.481098          0.101115022           26.3421164        0.00013398029            108.58039          0.193619969    25.40915190000001

!
           340000000          0.245270048           6.27103666       0.000100343227           16.5700311          0.128092706            10.587163       0.000198245162           149.144603
      0.000100343227           16.5700311           0.22724424           8.34672016       0.000120781585           129.362913           0.11964718           12.3991695
         0.128092706            10.587163       0.000120781585           129.362913           0.23783455           5.44024057       0.000130864693           84.9497286
      0.000198245162           149.144603           0.11964718           12.3991695       0.000130864693           84.9497286          0.216469162           9.37456238

!
           350000000           0.25404022   -9.711316630000001       0.000108538278   -4.785901699999999          0.134356908          -3.70146626       0.000189432089           130.628994
      0.000108538278   -4.785901699999999          0.240663572   -7.512377949999999        0.00011336285           109.342462          0.129809813            -1.786276
         0.134356908          -3.70146626        0.00011336285           109.342462          0.246390623          -10.5189649         0.0001264984           62.4744242
      0.000189432089           130.628994          0.129809813            -1.786276         0.0001264984           62.4744242          0.229940825          -6.45217588

!
           360000000          0.253077326          -25.4248765       0.000115822018          -26.0759788          0.132076306          -17.5714197        0.00018179218           112.706092
      0.000115822018          -26.0759788          0.244421298           -23.293805        0.00010645505    90.03227130000001          0.131367024   -15.97284660000001
         0.132076306          -17.5714197        0.00010645505    90.03227130000001          0.245136895          -26.2335263       0.000121650845           41.0025024
       0.00018179218           112.706092          0.131367024   -15.97284660000001       0.000121650845           41.0025024          0.233685806          -22.1546541

!
           370000000          0.242534368          -40.9899698       0.000122644183          -47.3890778          0.121457281           -30.858939         0.0001751361    95.22478530000001
      0.000122644183          -47.3890778          0.238521699          -39.1329699 9.984837849999999e-005           71.2760485          0.124338191   -30.08158860000001
         0.121457281           -30.858939 9.984837849999999e-005           71.2760485          0.234231607          -41.8189449       0.000116682803           20.3283217
        0.0001751361    95.22478530000001          0.124338191   -30.08158860000001       0.000116682803           20.3283217          0.227712291           -37.854451

!
           380000000          0.222910306          -56.4436094       0.000129153092   -68.92293479999999          0.103111853          -42.9571024       0.000169182082    78.17204220000002
      0.000129153092   -68.92293479999999           0.22324352   -55.16123240000001      9.32012792e-005           53.1482177          0.108972008          -43.9284806
         0.103111853          -42.9571024      9.32012792e-005           53.1482177          0.214191462          -57.3074482       0.000111572437          0.275498447
      0.000169182082    78.17204220000002          0.108972008          -43.9284806       0.000111572437          0.275498447          0.212322229          -53.6571954

!
           390000000          0.195356251          -71.6748427       0.000135082902           -90.872992  0.07869501230000001          -51.9936921       0.000163924992    61.67411549999999
      0.000135082902           -90.872992          0.199318599          -71.4654323      8.63901386e-005           36.0536792         0.0860282859          -56.8433606