! Tyco Electronics Strada Whisper System
! NEXT_F1415_G1112
!! 
!! SYSTEM DESCRIPTION: Daughtercard-Footprint-Connector-Footprint-Daughtercard
!! PCB DESCRIPTION: DC: 140mil, Megtron7N, upper layer route, 15mil stub, 6-6-6mil 14" traces
!! CONNECTOR DESCRIPTION: Next-Gen STRADA Whisper Direct-Plug Orthogonal Connector
!! MODEL DESCRIPTION: Tyco Electronics System 4-port S-parameter 
!! MODEL STATUS: Developmental
!! MODEL GEOMETRY: Channel Model
!! MODEL FREQUENCY RANGE: DC to 60 GHz in 10 MHz frequency steps
!! MODEL EDGE RATE LIMITATION: 8.3 ps (Using conservative 0.5/Fmax rule of thumb)
!! 
!! TIME-DOMAIN TRANSFORM CAUTIONS: 
!! 1.) Do not simulate transient edge rates faster than the number listed above.  Edge rates faster than this number 
!!     contain significant spectral content at frequencies above the model's highest frequency. 
!! 2.) Even when simulating edge rates that are slower than the number listed above, be aware that the best time 
!!     resolution possible with a direct iFFT is (1 / 2Fmax).  As a result, time resolution is typically not adequate 
!!     for most time-domain simulations unless tricks such as windowing are used to minimize leakage and aliasing. 
!! 3.) Because the model has a uniform frequency step, a direct iFFT will result in an impulse that that has a time 
!!     length given by either (1 / Fstep) or (1 / 2Fstep), depending on the transform being used.  Care has been taken 
!!     in selecting the frequency step to ensure a settled impulse response for the model.  Therefore, convolution with 
!!     the model's impulse response should present no issues.  However, if directly concatenating s-parameter models 
!!     in the frequency domain a user must either interpolate necessary interim frequencies or complete impulse response 
!!     zero-padding.  Impulse response zero-padding is more difficult, but more accurate. 
!! 
!! PORT DEFINITIONS: 
!! Port   1  ----->  RX Side	F14     G11     RX Side  <-----  Port   3
!! Port   2  ----->  RX Side	F15     G12     RX Side  <-----  Port   4
!! 
!!!!!!!!!!!!!!!!!!!!!!!!!!!!!!!!!!!!!!!!!!!!!!!!!!!!!!!!!!!!!!!!!!!!!!!!!!!!!!!!!!!!!!!!!!!!!!!!!!!!!!!!!!!!!!!!!!!!!!!!! Touchstone data
! Created: 10-Dec-2018 by IdEM R2012 (8.0.5)
# Hz S MA R 50

!
                   0         0.0574742849                    0      1.10340261e-006                    0        0.00170201038                    0      1.70487724e-006                    0
     1.10340261e-006                    0         0.0578861211                    0      6.60658714e-007                    0        0.00192111668                    0
       0.00170201038                    0      6.60658714e-007                    0         0.0577228862                    0      1.05122082e-006                    0
     1.70487724e-006                    0        0.00192111668                    0      1.05122082e-006                    0         0.0582612873                    0

!
            10000000         0.0694620022           14.5548236      3.42673566e-006   -76.61436140000002         0.0381053265           69.1095096      5.90316142e-006          -88.6308459
     3.42673566e-006   -76.61436140000002         0.0698129042           14.4401243      1.01644949e-005          -100.257954         0.0381229595           68.8513257
        0.0381053265           69.1095096      1.01644949e-005          -100.257954         0.0698680944           14.6884231      3.35925865e-006           39.7075181
     5.90316142e-006          -88.6308459         0.0381229595           68.8513257      3.35925865e-006           39.7075181           0.07029452           14.4863593

!
            20000000         0.0906842928           14.4981402 7.732170730000001e-006          -98.2636167  0.07178283520000001            52.246734       1.2061552e-005           -113.71615
7.732170730000001e-006          -98.2636167  0.09099276649999999           14.4432462      2.14015393e-005          -117.252973  0.07184281400000001           52.2125424
 0.07178283520000001            52.246734      2.14015393e-005          -117.252973         0.0914041241           14.6489878      6.20286686e-006           15.8937647
      1.2061552e-005           -113.71615  0.07184281400000001           52.2125424      6.20286686e-006           15.8937647          0.091709768            14.504346

!
            30000000          0.108772828           5.94750808      1.38579097e-005          -118.578128  0.09778121289999998           34.8361739      1.93926528e-005          -134.725328
     1.38579097e-005          -118.578128          0.109142263           5.99008936      3.45229367e-005          -134.539126  0.09795914170000002           34.9195052
 0.09778121289999998           34.8361739      3.45229367e-005          -134.539126          0.109838674    6.089526199999999 8.676061540000001e-006          -14.1819134
     1.93926528e-005          -134.725328  0.09795914170000002           34.9195052 8.676061540000001e-006          -14.1819134          0.110144112           6.05599877

!
            40000000          0.117989794          -6.42401121      2.19935392e-005          -140.673942          0.113846182           17.4752712      2.81456331e-005          -155.702255
     2.19935392e-005          -140.673942          0.118535398   -6.280447109999999      4.99293547e-005          -153.087187          0.114237542            17.650931
         0.113846182           17.4752712      4.99293547e-005          -153.087187          0.119411839          -6.28873973      1.06580426e-005   -47.09274880000001
     2.81456331e-005          -155.702255          0.114237542            17.650931      1.06580426e-005   -47.09274880000001           0.11985153          -6.21158685

!
            50000000           0.11586537          -20.7492961      3.22615436e-005          -164.466872          0.118663081          0.198370535        3.855946e-005          -177.435566
     3.22615436e-005          -164.466872          0.116706566          -20.4975745      6.77863124e-005          -172.977928          0.119377068          0.457531962
         0.118663081          0.198370535      6.77863124e-005          -172.977928          0.117654434          -20.6145958      1.21296591e-005   -83.10145060000001
       3.855946e-005          -177.435566          0.119377068          0.457531962      1.21296591e-005   -83.10145060000001          0.118364126          -20.4272468

!
            60000000           0.10144739          -36.3854264      4.46836673e-005           170.215434          0.111630278          -17.0167189      5.07926841e-005           159.762826
     4.46836673e-005           170.215434          0.102702762          -36.0046907      8.79984141e-005           165.789778          0.112778908          -16.6815824
         0.111630278          -17.0167189      8.79984141e-005           165.789778          0.103616511   -36.24199320000001       1.3198905e-005          -123.404843
     5.07926841e-005           159.762826          0.112778908          -16.6815824       1.3198905e-005          -123.404843          0.104727883          -35.9358652

!
            70000000  0.07479516310000002          -53.2902723 5.898142770000001e-005           143.467876         0.0928995945   -34.00515059999999      6.47221883e-005           135.712606
5.898142770000001e-005           143.467876         0.0765630442   -52.72208200000001       0.000109970059            143.22792  0.09457419610000001          -33.6183659
        0.0928995945   -34.00515059999999       0.000109970059            143.22792  0.07735392570000001          -53.1120311      1.42601504e-005          -169.207091
     6.47221883e-005           135.712606  0.09457419610000001          -33.6183659      1.42601504e-005          -169.207091  0.07897527720000001          -52.6578833

!
            80000000         0.0371713504          -72.6284065      7.43239689e-005           115.457083           0.06377692   -49.80828830000001 7.967214440000001e-005            110.41869
     7.43239689e-005           115.457083  0.03948377890000001          -71.5435296       0.000132311404           119.453808         0.0660043941          -49.4860288
          0.06377692   -49.80828830000001       0.000132311404           119.453808         0.0401135513   -72.20915030000001      1.61403221e-005           140.101055
7.967214440000001e-005            110.41869         0.0660043941          -49.4860288      1.61403221e-005           140.101055          0.042287282           -71.427104

!
            90000000 0.009297075009999999           112.587012       8.9254908e-005    86.55181210000001          0.027546967          -57.6054803      9.43206711e-005    84.17621060000001
      8.9254908e-005    86.55181210000001        0.00653720573             118.5086       0.000152850955    94.79660850000001         0.0301713901          -58.5536317
         0.027546967          -57.6054803       0.000152850955    94.79660850000001 0.006248001750000001           122.569789      1.97305639e-005    88.46422200000001
     9.43206711e-005    84.17621060000001         0.0301713901          -58.5536317      1.97305639e-005    88.46422200000001        0.00402453614           140.427044

!
           100000000         0.0585503149    79.18367739999999       0.000102048923           57.3418219         0.0170087274    53.58765560000001       0.000107067878    57.57245850000001
      0.000102048923           57.3418219         0.0553685331           79.6085537       0.000169283026           69.8106353         0.0145106915           47.7720771
        0.0170087274    53.58765560000001       0.000169283026           69.8106353         0.0549070331            79.536019      2.51557376e-005           40.2162148
      0.000107067878    57.57245850000001         0.0145106915           47.7720771      2.51557376e-005           40.2162148         0.0519004533    80.25168669999999

!
           110000000           0.10671562           59.9867144       0.000111422335           28.5127875  0.05446549729999999    57.37945910000001        0.00011678686           31.3264187
      0.000111422335           28.5127875          0.103456022           60.4850319       0.000180215895           45.1459257         0.0513560457           57.4913842
 0.05446549729999999    57.37945910000001       0.000180215895           45.1459257          0.102783518           60.2032837      3.16991513e-005          -3.21463273
       0.00011678686           31.3264187         0.0513560457           57.4913842      3.16991513e-005          -3.21463273         0.0997142093           60.8875068

!
           120000000          0.148762241           41.9275626       0.000117062338   0.6441958089999998          0.087809161           43.2543648       0.000123368303    6.040049590000001
      0.000117062338   0.6441958089999998          0.145665296           42.4728244       0.000185769247           21.3417446         0.0847965344           43.7817735
         0.087809161           43.2543648       0.000185769247           21.3417446          0.144584911           42.1228225      3.84791083e-005   -42.25745199999999
      0.000123368303    6.040049590000001         0.0847965344           43.7817735      3.84791083e-005   -42.25745199999999          0.141711673           42.8244296

!
           130000000          0.181482787            24.529346       0.000119541779          -25.9387124           0.11296635           27.5249572       0.000127587726          -17.9836799
      0.000119541779          -25.9387124          0.178726187            25.094584       0.000187208785          -1.31721778          0.110231995           28.1683511
          0.11296635           27.5249572       0.000187208785          -1.31721778          0.177083529           24.7284861      4.49368432e-005          -77.7055577
      0.000127587726          -17.9836799          0.110231995           28.1683511      4.49368432e-005          -77.7055577          0.174601192           25.4393321

!
           140000000          0.203266079    7.642505439999998       0.000119798069          -51.1857181          0.128513856             11.68418       0.000130509125          -40.7626703
      0.000119798069          -51.1857181          0.200951077    8.211551650000001       0.000186068963          -22.8021692          0.126150291           12.3788659
         0.128513856             11.68418       0.000186068963          -22.8021692          0.198646261    7.859838049999999 5.091216630000001e-005          -110.320835
      0.000130509125          -40.7626703          0.126150291           12.3788659 5.091216630000001e-005          -110.320835          0.196672166    8.571599620000001

!
           150000000          0.213604561   -8.894637319999999       0.000118630247   -75.24338930000002          0.134038428   -4.025879610000001       0.000132943508          -62.5255347
      0.000118630247   -75.24338930000002          0.211774898          -8.33085054       0.000183491955           -43.232001           0.13208775          -3.29702993
         0.134038428   -4.025879610000001       0.000183491955           -43.232001          0.208747707   -8.644102330000001      5.64954954e-005          -140.818043
      0.000132943508          -62.5255347           0.13208775          -3.29702993      5.64954954e-005          -140.818043           0.20733952   -7.936249939999998

!
           160000000          0.212575386          -25.2570187       0.000116433889   -98.33719480000001          0.129560698          -19.6219907       0.000135211764          -83.5521451
      0.000116433889   -98.33719480000001          0.211241596          -24.7054341       0.000180051466          -62.7317258          0.128041286          -18.8609088
         0.129560698          -19.6219907       0.000180051466          -62.7317258          0.207456106          -24.9521391       6.1836246e-005          -169.876252
      0.000135211764          -83.5521451          0.128041286          -18.8609088       6.1836246e-005          -169.876252           0.20663474          -24.2524616

!
           170000000          0.200608336          -41.5832089       0.000113151239          -120.639661          0.115354143          -35.0866451       0.000137178725          -104.027156
      0.000113151239          -120.639661          0.199760258            -41.05503       0.000175961692   -81.31032140000001          0.114269983          -34.2929621
         0.115354143          -35.0866451       0.000175961692   -81.31032140000001          0.195204548          -41.1897542      6.69773427e-005           161.874954
      0.000137178725          -104.027156          0.114269983          -34.2929621      6.69773427e-005           161.874954          0.194964673          -40.5077995

!
           180000000          0.178611226   -57.90798730000001       0.000108398533          -142.117166  0.09216078480000001   -50.07776200000001       0.000138487867          -123.935455
      0.000108398533          -142.117166           0.17821177   -57.42836370000001       0.000171542741          -98.7940881  0.09148965739999999   -49.26099059999999
 0.09216078480000001   -50.07776200000001       0.000171542741          -98.7940881          0.172919091           -57.364741      7.17254862e-005           133.900588
      0.000138487867          -123.935455  0.09148965739999999   -49.26099059999999      7.17254862e-005           133.900588          0.173220152          -56.7254334

!
           190000000          0.148351827   -74.07372239999999       0.000101816689          -162.352361  0.06171439000000001   -63.04938020000001       0.000138979824          -143.028829
      0.000101816689          -162.352361          0.148312609          -73.6989243       0.000167826584          -114.887203         0.0613768882   -62.25614070000001
 0.06171439000000001   -63.04938020000001       0.000167826584          -114.887203          0.142403406          -73.2589224      7.55893946e-005           105.833041
      0.000138979824          -143.028829         0.0613768882   -62.25614070000001      7.55893946e-005           105.833041          0.143142041   -72.72203690000001

!
           200000000          0.112819504          -89.5934101      9.36918683e-005           179.605321          0.027948858          -64.3642588       0.000139201984          -160.927029
     9.36918683e-005           179.605321          0.112968294          -89.4460528       0.000166948291          -129.470599         0.0277447546   -63.78898029999999
         0.027948858          -64.3642588       0.000166948291          -129.470599          0.106707267          -88.2291178      7.78579292e-005           77.5351043
      0.000139201984          -160.927029         0.0277447546   -63.78898029999999      7.78579292e-005           77.5351043          0.107680936   -87.93333749999999

!
           210000000         0.0761909556          -103.324683 8.571671599999999e-005           165.141207         0.0182086758            21.227858        0.00014066438           -177.40715
8.571671599999999e-005           165.141207         0.0762442966          -103.679362        0.00017164241          -143.058393  0.01800327880000001           23.2210282
        0.0182086758            21.227858        0.00017164241          -143.058393  0.07012975489999999          -100.639458 7.783454260000001e-005    49.08990730000001
       0.00014066438           -177.40715  0.01800327880000001           23.2210282 7.783454260000001e-005    49.08990730000001         0.0709992812          -100.924733

!
           220000000         0.0432988583          -112.208433      8.13896253e-005           155.108533          0.047587815    34.97103440000001       0.000145422688           167.249275
     8.13896253e-005           155.108533         0.0428237194          -113.713343       0.000183737193          -156.837977         0.0477910527    36.69222180000001
         0.047587815    34.97103440000001       0.000183737193          -156.837977          0.037920013           -105.35651 7.508016030000001e-005           20.6923235
      0.000145422688           167.249275         0.0477910527    36.69222180000001 7.508016030000001e-005           20.6923235         0.0381170627          -107.135279

!
           230000000         0.0194360302          -104.865269      8.49182085e-005           147.729303         0.0732712071           23.5483681       0.000155143376           152.227068
     8.49182085e-005           147.729303         0.0177342512          -107.989809       0.000203099277          -171.961614         0.0740273077           25.2111558
        0.0732712071           23.5483681       0.000203099277          -171.961614         0.0176695176           -82.232254 6.945166279999999e-005          -7.49492769
      0.000155143376           152.227068         0.0740273077           25.2111558 6.945166279999999e-005          -7.49492769         0.0161780217          -85.1425976

!
           240000000         0.0114968375           -61.284819 9.834938600000001e-005           138.730556         0.0897483619    8.734981679999999        0.00017049126           136.595381
9.834938600000001e-005           138.730556        0.00969125639   -50.40303410000001       0.000228177778           171.057265         0.0912743785           10.4232389
        0.0897483619    8.734981679999999       0.000228177778           171.057265         0.0173509782           -40.757612      6.09124362e-005          -35.4083976
       0.00017049126           136.595381         0.0912743785           10.4232389      6.09124362e-005          -35.4083976         0.0159785586   -34.33077589999999

!
           250000000         0.0106399783          -42.1235386       0.000120510285            125.41174         0.0952440869   -6.826605849999999       0.000191240715           119.712256
      0.000120510285            125.41174         0.0111527179          -24.6358963       0.000257054452           152.228135         0.0977262274          -5.08689168
        0.0952440869   -6.826605849999999       0.000257054452           152.228135         0.0184689479          -36.2175894      4.93173831e-005   -62.97375300000001
      0.000191240715           119.712256         0.0977262274          -5.08689168      4.93173831e-005   -62.97375300000001         0.0186360994          -27.2435045

!
           260000000        0.00152746631          -17.3567144       0.000148878905           107.812546         0.0892427187          -22.2415956       0.000216541282           101.280071
      0.000148878905           107.812546        0.00522497481           9.49086724        0.00028772618           131.735517         0.0928049277          -20.4666686
        0.0892427187          -22.2415956        0.00028772618           131.735517 0.009563774359999999           -42.818995      3.43947301e-005   -89.55085819999999
      0.000216541282           101.280071         0.0928049277          -20.4666686      3.43947301e-005   -89.55085819999999         0.0114383609          -26.8710258

!
           270000000         0.0192251892           113.544392       0.000180679851           86.9054209         0.0723244114          -36.4478939       0.000244815317    81.24406879999999
      0.000180679851           86.9054209         0.0172458968           101.245045       0.000317734316           109.789416  0.07698013140000001          -34.7738326
        0.0723244114          -36.4478939       0.000317734316           109.789416         0.0107664236           113.718316      1.61504179e-005          -109.672297
      0.000244815317    81.24406879999999  0.07698013140000001          -34.7738326      1.61504179e-005          -109.672297        0.00922163501    92.87900310000001

!
           280000000         0.0497343618           100.297268       0.000212693906           63.6446804         0.0466120739   -45.89264710000001         0.0002734983           59.7560915
      0.000212693906           63.6446804         0.0462955767            96.549649       0.000343892279           86.6583931         0.0521472528           -45.131151
        0.0466120739   -45.89264710000001       0.000343892279           86.6583931         0.0411202512           101.657873      8.33907032e-006          -14.5476629
        0.0002734983           59.7560915         0.0521472528           -45.131151      8.33907032e-006          -14.5476629         0.0377672626           97.8288556

!
           290000000  0.08751815699999999    84.55097739999999       0.000241260776           38.8915461         0.0197054147          -24.5683729       0.000299259255           37.1950442
      0.000241260776           38.8915461  0.08328757589999999    83.14850420000001       0.000362755828    62.74230909999999         0.0242593649          -33.9073475
        0.0197054147          -24.5683729       0.000362755828    62.74230909999999         0.0788279593           85.7035839      3.14659399e-005          -17.9015118
      0.000299259255           37.1950442         0.0242593649          -33.9073475      3.14659399e-005          -17.9015118         0.0746440048           84.5940815

!
           300000000          0.128541743           67.9169354        0.00026312138           13.4775201         0.0316851405           44.7994041       0.000319073098           14.1363166
       0.00026312138           13.4775201          0.124076835           67.5230772       0.000371893702    38.57400740000001          0.027460947           37.2798408
        0.0316851405           44.7994041       0.000371893702    38.57400740000001          0.119848492           68.8961181      5.60732449e-005          -44.7461979
      0.000319073098           14.1363166          0.027460947           37.2798408      5.60732449e-005          -44.7461979          0.115415811           68.8203249

!
           310000000          0.168364161           51.0253266         0.0002766302          -11.8335056         0.0639023559           44.8933379       0.000331606832   -8.785571950000001
        0.0002766302          -11.8335056          0.164196875           51.1362082       0.000371098451           14.7142337         0.0585598703    43.94684880000001
        0.0639023559           44.8933379       0.000371098451           14.7142337          0.159729375           51.8912207      7.91060174e-005   -73.58729889999999
      0.000331606832   -8.785571950000001         0.0585598703    43.94684880000001      7.91060174e-005   -73.58729889999999          0.155607807           52.3079058

!
           320000000          0.203141658           34.2342324       0.000282292002   -36.45624070000001         0.0930919078           33.3318149       0.000337766894          -31.0663348
      0.000282292002   -36.45624070000001          0.199688634           34.6048869       0.000362422219          -8.40163737  0.08814842370000001    33.67621280000001
        0.0930919078           33.3318149       0.000362422219          -8.40163737           0.19459737           35.0329631      9.90264157e-005          -102.208815
      0.000337766894          -31.0663348  0.08814842370000001    33.67621280000001      9.90264157e-005          -102.208815          0.191235017           35.6956263

!
           330000000          0.230246933           17.7129601       0.000282169276           -60.067467          0.115499195           19.5750013       0.000339949194   -52.46205240000001
      0.000282169276           -60.067467          0.227765679           18.2111086       0.000348977458          -30.5627495          0.111354656           20.3437343
         0.115499195           19.5750013       0.000348977458          -30.5627495          0.221787933           18.4810971       0.000115399612           -129.91603
      0.000339949194   -52.46205240000001          0.111354656           20.3437343       0.000115399612           -129.91603          0.219471337           19.2608979

!
           340000000          0.248266749             1.477662        0.00027874389   -82.60707750000002          0.129781976    5.340090500000001       0.000340723879          -72.9981702
       0.00027874389   -82.60707750000002          0.246882106           2.02962856       0.000333531499   -51.77556489999999          0.126591703           6.28239879
         0.129781976    5.340090500000001       0.000333531499   -51.77556489999999          0.239855342    2.248054910000001       0.000128677221          -156.519662
      0.000340723879          -72.9981702          0.126591703           6.28239879       0.000128677221          -156.519662          0.238731937           3.07485748

!
           350000000          0.256623087          -14.5623412       0.000274013935          -104.213913          0.135509859   -8.952066839999999       0.000341877573   -92.88235140000001
      0.000274013935          -104.213913          0.256384749          -13.9994839       0.000317755118          -72.1766488          0.133334176   -7.931996070000002
         0.135509859   -8.952066839999999       0.000317755118          -72.1766488          0.248201781          -13.7554938       0.000139736901           177.894198
      0.000341877573   -92.88235140000001          0.133334176   -7.931996070000002       0.000139736901           177.894198          0.248335487          -12.9218249

!
           360000000          0.255180883          -30.5540236        0.00026907891          -125.136146          0.132608058          -23.2162223       0.000344086936           -112.38447
       0.00026907891          -125.136146           0.25611168          -30.0109766       0.000302191714          -91.9196341          0.131476527          -22.1693496
         0.132608058          -23.2162223       0.000302191714          -91.9196341          0.246688234   -29.66981150000001       0.000149465895           153.078184
      0.000344086936           -112.38447          0.131476527          -22.1693496       0.000149465895           153.078184          0.248106433          -28.8582009

!
           370000000          0.244057267   -46.65386389999999       0.000264072611          -145.635241          0.121163802   -37.38704780000001       0.000347021873           -131.72987
      0.000264072611          -145.635241          0.246172277          -46.1648145       0.000286637267          -111.069685          0.121089378          -36.3706116
         0.121163802   -37.38704780000001       0.000286637267          -111.069685          0.235444606          -45.6373531        0.00015847262           128.699162
      0.000347021873           -131.72987          0.121089378          -36.3706116        0.00015847262           128.699162          0.238155193          -44.8817095

!
           380000000          0.223694814          -62.9854344       0.000258308825          -165.882283          0.101573273            -51.15597       0.000349674577          -151.021307
      0.000258308825          -165.882283          0.226985017          -62.6056402       0.000270729144          -129.516421           0.10251784           -50.292489
         0.101573273            -51.15597       0.000270729144          -129.516421          0.214942877   -61.75566379999999        0.00016687894           104.405026
      0.000349674577          -151.021307           0.10251784           -50.292489        0.00016687894           104.405026          0.218914505          -61.1137031

!
           390000000          0.195160982          -79.6035145       0.000250672293           174.149801         0.0749921677   -63.37676270000001       0.000350889725          -170.194103
      0.000250672293           174.149801          0.199544906   -79.43358550000001       0.000254716198           -146.93037  0.07677531560000001           -63.010483
        0.0749921677   -63.37676270000001       0.000254716198           -146.93037          0.186294212          -78.0312697         0.0001741829            79.906289