! Tyco Electronics Strada Whisper System
! FEXT_G89_G1112
!! 
!! SYSTEM DESCRIPTION: Daughtercard-Footprint-Connector-Footprint-Daughtercard
!! PCB DESCRIPTION: DC: 140mil, Megtron7N, upper layer route, 15mil stub, 6-6-6mil 14" traces
!! CONNECTOR DESCRIPTION: Next-Gen STRADA Whisper Direct-Plug Orthogonal Connector
!! MODEL DESCRIPTION: Tyco Electronics System 4-port S-parameter 
!! MODEL STATUS: Developmental
!! MODEL GEOMETRY: Channel Model
!! MODEL FREQUENCY RANGE: DC to 60 GHz in 10 MHz frequency steps
!! MODEL EDGE RATE LIMITATION: 8.3 ps (Using conservative 0.5/Fmax rule of thumb)
!! 
!! TIME-DOMAIN TRANSFORM CAUTIONS: 
!! 1.) Do not simulate transient edge rates faster than the number listed above.  Edge rates faster than this number 
!!     contain significant spectral content at frequencies above the model's highest frequency. 
!! 2.) Even when simulating edge rates that are slower than the number listed above, be aware that the best time 
!!     resolution possible with a direct iFFT is (1 / 2Fmax).  As a result, time resolution is typically not adequate 
!!     for most time-domain simulations unless tricks such as windowing are used to minimize leakage and aliasing. 
!! 3.) Because the model has a uniform frequency step, a direct iFFT will result in an impulse that that has a time 
!!     length given by either (1 / Fstep) or (1 / 2Fstep), depending on the transform being used.  Care has been taken 
!!     in selecting the frequency step to ensure a settled impulse response for the model.  Therefore, convolution with 
!!     the model's impulse response should present no issues.  However, if directly concatenating s-parameter models 
!!     in the frequency domain a user must either interpolate necessary interim frequencies or complete impulse response 
!!     zero-padding.  Impulse response zero-padding is more difficult, but more accurate. 
!! 
!! PORT DEFINITIONS: 
!! Port   1  ----->  TX Side	G8     G11     RX Side  <-----  Port   3
!! Port   2  ----->  TX Side	G9     G12     RX Side  <-----  Port   4
!! 
!!!!!!!!!!!!!!!!!!!!!!!!!!!!!!!!!!!!!!!!!!!!!!!!!!!!!!!!!!!!!!!!!!!!!!!!!!!!!!!!!!!!!!!!!!!!!!!!!!!!!!!!!!!!!!!!!!!!!!!!
! Touchstone data
! Created: 10-Dec-2018 by IdEM R2012 (8.0.5)
# Hz S MA R 50

!
                   0         0.0571794386                    0      4.95805046e-006                  180        0.00188994223                    0      2.20673916e-006                  180
     4.95805046e-006                  180         0.0549905645                    0      1.66764852e-005                  180         0.0014580688                    0
       0.00188994223                    0      1.66764852e-005                  180          0.057288483                    0      5.17701027e-006                  180
     2.20673916e-006                  180         0.0014580688                    0      5.17701027e-006                  180         0.0551797867                    0

!
            10000000         0.0692904263           14.7478858 5.863558669999999e-006           174.977327         0.0382171439    68.81419220000001      3.70858163e-006          -150.561401
5.863558669999999e-006           174.977327         0.0677950081           16.3732148      1.75927993e-005           149.145165         0.0378559309    69.71723179999999
        0.0382171439    68.81419220000001      1.75927993e-005           149.145165  0.06955529979999998           14.9192198      1.53233269e-005    90.82455910000002
     3.70858163e-006          -150.561401         0.0378559309    69.71723179999999      1.53233269e-005    90.82455910000002  0.06811907419999999           16.4857714

!
            20000000         0.0907164853           14.6787237       8.0815475e-006           157.903614  0.07199032330000001           52.0565344      6.21799664e-006          -158.990295
      8.0815475e-006           157.903614  0.09041682440000001           16.7015807      2.04314374e-005           119.519956  0.07145921230000001    52.94953440000001
 0.07199032330000001           52.0565344      2.04314374e-005           119.519956  0.09127562810000001           14.8753113      2.94395063e-005    62.40258430000001
     6.21799664e-006          -158.990295  0.07145921230000001    52.94953440000001      2.94395063e-005    62.40258430000001         0.0910032739           16.8246593

!
            30000000          0.108995476           6.06741603      1.10113817e-005           133.179667  0.09808281169999999           34.6562287 8.638123390000002e-006          -177.112859
     1.10113817e-005           133.179667          0.110049309    8.286285559999998       2.5075407e-005    91.48117550000002  0.09767201350000002           35.7545294
 0.09808281169999999           34.6562287       2.5075407e-005    91.48117550000002          0.109862358           6.26169865      4.41854546e-005           40.1817656
8.638123390000002e-006          -177.112859  0.09767201350000002           35.7545294      4.41854546e-005           40.1817656          0.110922739           8.40033603

!
            40000000           0.11839076          -6.37438476      1.44479902e-005           105.277773          0.114238665    17.27257270000001      1.06797712e-005           161.618059
     1.44479902e-005           105.277773          0.121080134          -3.87994099      3.14373697e-005           64.5818488           0.11433914            18.649164
         0.114238665    17.27257270000001      3.14373697e-005           64.5818488          0.119560858   -6.172788359999999       5.9642076e-005           19.4962132
     1.06797712e-005           161.618059           0.11433914            18.649164       5.9642076e-005           19.4962132          0.122249311   -3.772937320000001

!
            50000000          0.116441076          -20.7881871      1.83223279e-005           76.0137422          0.119143731        -0.0559793526      1.21106573e-005            138.83933
     1.83223279e-005           76.0137422          0.121148991          -17.8737027      3.94545794e-005    38.15982580000001          0.120212755            1.6507797
         0.119143731        -0.0559793526      3.94545794e-005    38.15982580000001          0.117912272          -20.5592654 7.609312029999999e-005  -0.8116767980000001
     1.21106573e-005            138.83933          0.120212755            1.6507797 7.609312029999999e-005  -0.8116767980000001          0.122624161          -17.7702298

!
            60000000          0.102199946          -36.5618353      2.25304207e-005           45.9060937          0.112195218          -17.3669671      1.26383336e-005            115.31278
     2.25304207e-005           45.9060937          0.109344401          -32.9938312      4.89918354e-005           11.6341961          0.114711688          -15.2872802
         0.112195218          -17.3669671      4.89918354e-005           11.6341961          0.103973345          -36.2682396      9.37468017e-005          -21.3010517
     1.26383336e-005            115.31278          0.114711688          -15.2872802      9.37468017e-005          -21.3010517          0.111138303          -32.8912508

!
            70000000         0.0757321196   -53.74519169999999      2.68241321e-005           14.9957088         0.0935375094          -34.5445312      1.19302337e-005           92.1566936
     2.68241321e-005           14.9957088  0.08566064690000001   -49.00913210000001      5.96776256e-005          -15.3941635         0.0979076614          -32.0798947
        0.0935375094          -34.5445312      5.96776256e-005          -15.3941635         0.0778056382          -53.2872684        0.00011247594   -42.32596720000001
     1.19302337e-005           92.1566936         0.0979076614          -32.0798947        0.00011247594   -42.32596720000001  0.08778424400000001            -48.90523

!
            80000000         0.0383290366          -73.9868463      3.07507549e-005          -16.7325223         0.0644487188          -50.8083996 9.800324079999999e-006           72.4766284
     3.07507549e-005          -16.7325223         0.0510991978          -65.9002461      7.07458101e-005          -43.0813978         0.0708403561          -48.1002265
        0.0644487188          -50.8083996      7.07458101e-005          -43.0813978         0.0406716849           -72.831941       0.000131555614   -64.04991130000001
9.800324079999999e-006           72.4766284         0.0708403561          -48.1002265       0.000131555614   -64.04991130000001  0.05355484860000001   -65.78759119999999

!
            90000000         0.0087517147           123.906441      3.37063195e-005   -49.13700919999999  0.02803484020000001          -60.6218201      6.86109583e-006           66.9763073
     3.37063195e-005   -49.13700919999999        0.00806133146   -86.04174639999999 8.103333129999999e-005   -71.29582499999999  0.03611211549999999   -59.65209100000001
 0.02803484020000001          -60.6218201 8.103333129999999e-005   -71.29582499999999        0.00614051812           131.256726       0.000149614762          -86.3818596
     6.86109583e-006           66.9763073  0.03611211549999999   -59.65209100000001       0.000149614762          -86.3818596          0.010833853   -85.18210860000001

!
           100000000          0.057330546           81.1006332      3.51465581e-005          -81.8888857         0.0154166401    56.45771069999999 6.608391650000001e-006           90.2370713
     3.51465581e-005          -81.8888857         0.0395735555    80.50646879999999      8.92806413e-005          -99.6406156 0.009478725469999999           25.9447966
        0.0154166401    56.45771069999999      8.92806413e-005          -99.6406156         0.0543099431    80.63078640000001       0.000165061871          -108.964601
6.608391650000001e-006           90.2370713 0.009478725469999999           25.9447966       0.000165061871          -108.964601         0.0365084454    80.73251879999999

!
           110000000          0.105359957           61.2725028      3.48480752e-005          -114.626746         0.0531920946           59.0667595      1.13638101e-005           93.9969105
     3.48480752e-005          -114.626746  0.08688211210000001           62.4993117      9.46409916e-005           -127.58575           0.04431519    59.58205090000001
        0.0531920946           59.0667595      9.46409916e-005           -127.58575          0.102105916           60.9369883       0.000176883914          -131.289236
     1.13638101e-005           93.9969105           0.04431519    59.58205090000001       0.000176883914          -131.289236         0.0835647883           62.6632285

!
           120000000          0.147324288           43.0344534      3.30000272e-005          -147.226566  0.08657621400000001           44.5159686       1.7675285e-005           76.8720433
     3.30000272e-005          -147.226566          0.129222394           44.9941334      9.70090722e-005          -154.664561         0.0785449382           46.8023508
 0.08657621400000001           44.5159686      9.70090722e-005          -154.664561          0.143846126    42.76003309999999       0.000185207918          -152.898254
      1.7675285e-005           76.8720433         0.0785449382           46.8023508       0.000185207918          -152.898254          0.125690581    45.15537460000001

!
           130000000          0.179994007           25.5971749      3.00583174e-005           179.935759          0.111743356    28.66015819999999      2.38259178e-005           54.1046984
     3.00583174e-005           179.935759          0.163158222           27.9315763      9.68937963e-005           179.378059          0.105429655           31.4107658
         0.111743356    28.66015819999999      9.68937963e-005           179.378059          0.176291799           25.3503287       0.000191144556          -173.551036
     2.38259178e-005           54.1046984          0.105429655           31.4107658       0.000191144556          -173.551036          0.159437206           28.1023018

!
           140000000          0.201750459    8.749634919999998      2.65498596e-005           145.779221          0.127298958           12.8244279      2.93026148e-005    30.18282379999999
     2.65498596e-005           145.779221          0.186763031           11.2974883       9.5000426e-005           154.557618          0.123187021           15.7173557
         0.127298958           12.8244279       9.5000426e-005           154.557618           0.19780819           8.51351086       0.000196145064           166.736725
     2.93026148e-005    30.18282379999999          0.123187021           15.7173557       0.000196145064           166.736725           0.18286095           11.4864989

!
           150000000          0.212084574   -7.680989210000001      2.30584641e-005           108.341848          0.132839803          -2.78103028      3.40653198e-005    6.445306559999999
     2.30584641e-005           108.341848          0.199278573           -5.0032126 9.186023679999998e-005           130.722394          0.131172629          0.113525935
         0.132839803          -2.78103028 9.186023679999998e-005           130.722394          0.207872319   -7.916022650000001       0.000201419336           147.762844
     3.40653198e-005    6.445306559999999          0.131172629          0.113525935       0.000201419336           147.762844          0.195187915          -4.78503672

!
           160000000          0.211079045   -23.85878470000001      2.04947229e-005    65.04069079999999          0.128399989          -18.1548161      3.82900377e-005          -16.7789041
     2.04947229e-005    65.04069079999999          0.200622836          -21.1100667 8.765978880000002e-005           107.672433          0.129279365          -15.3749715
         0.128399989          -18.1548161 8.765978880000002e-005           107.672433          0.206559537   -24.09817410000001       0.000207669669           129.249083
     3.82900377e-005          -16.7789041          0.129279365          -15.3749715       0.000207669669           129.249083          0.196326563          -20.8464062

!
           170000000          0.199179503   -39.89054479999999      2.04016515e-005           15.4709408          0.114281078          -33.2071821      4.22098502e-005   -39.58898179999999
     2.04016515e-005           15.4709408          0.191101831          -37.1470428      8.22443813e-005           85.3016006          0.117683547          -30.7446566
         0.114281078          -33.2071821      8.22443813e-005           85.3016006          0.194317215            -40.13543       0.000215082109           110.940755
     4.22098502e-005   -39.58898179999999          0.117683547          -30.7446566       0.000215082109           110.940755          0.186582503          -36.8108829

!
           180000000          0.177326186          -55.7456837      2.41860636e-005          -34.4310681         0.0912911797          -47.3967074      4.59833647e-005   -62.29473709999999
     2.41860636e-005          -34.4310681          0.171447529          -53.1494994      7.52610197e-005           63.7831679  0.09695892790000001   -45.76085270000001
        0.0912911797          -47.3967074      7.52610197e-005           63.7831679          0.172097847           -55.988592       0.000223468439           92.6742933
     4.59833647e-005   -62.29473709999999  0.09695892790000001   -45.76085270000001       0.000223468439           92.6742933          0.166698851          -52.6919003

!
           190000000          0.147348917          -71.1329282      3.16748499e-005   -78.74447530000001         0.0613675393          -58.5205098      4.95729165e-005          -85.2548896
     3.16748499e-005   -78.74447530000001          0.143131056          -68.9633817      6.64735659e-005    43.85479710000001         0.0684964701   -59.34387480000001
        0.0613675393          -58.5205098      6.64735659e-005    43.85479710000001          0.141754181           -71.341731       0.000232516461           74.4016359
     4.95729165e-005          -85.2548896         0.0684964701   -59.34387480000001       0.000232516461           74.4016359          0.138172356   -68.28515899999999

!
           200000000          0.112360837          -85.2732745      4.16426555e-005            -117.5566         0.0295478842          -54.0976805      5.26872107e-005          -108.697167
     4.16426555e-005            -117.5566          0.108740576          -84.0617816      5.63289558e-005           27.2818559         0.0353224853   -65.75898669999999
        0.0295478842          -54.0976805      5.63289558e-005           27.2818559          0.106434643          -85.3310705       0.000242093105    56.15967689999999
     5.26872107e-005          -108.697167         0.0353224853   -65.75898669999999       0.000242093105    56.15967689999999          0.103639421          -82.9275689

!
           210000000         0.0768185985   -96.33168360000001       5.2816209e-005          -152.775549         0.0235901713           14.6083724       5.4873348e-005          -132.593683
      5.2816209e-005          -152.775549         0.0721070194   -97.00826600000002      4.68811058e-005           17.2912766         0.0137546803           1.02147162
        0.0235901713           14.6083724      4.68811058e-005           17.2912766  0.07067348699999999          -95.7742779        0.00025243677    37.99308559999999
      5.4873348e-005          -132.593683         0.0137546803           1.02147162        0.00025243677    37.99308559999999         0.0670458635   -94.70569230000001

!
           220000000         0.0462909637   -99.70092200000001 6.414487210000001e-005           174.321174         0.0509891522    28.68855350000001       5.5728409e-005          -156.688996
6.414487210000001e-005           174.321174         0.0381770113          -102.759179 4.275084699999999e-005           16.1796747         0.0407315423           38.4956107
        0.0509891522    28.68855350000001 4.275084699999999e-005           16.1796747         0.0404010289   -96.39664240000001       0.000264079522           19.8810405
      5.5728409e-005          -156.688996         0.0407315423           38.4956107       0.000264079522           19.8810405         0.0338594325          -96.0751327

!
           230000000         0.0275529004   -86.19319670000002      7.48905574e-005           143.046991         0.0759952666            18.708098      5.50521393e-005           179.355158
     7.48905574e-005           143.046991         0.0156994448          -72.8785197      4.86669103e-005            16.791995         0.0688241356            29.205795
        0.0759952666            18.708098      4.86669103e-005            16.791995         0.0241651651           -73.672741       0.000277582425           1.72164794
     5.50521393e-005           179.355158         0.0688241356            29.205795       0.000277582425           1.72164794         0.0168463236           -51.161217

!
           240000000          0.023354254          -66.1258844 8.462014049999999e-005            112.94893          0.092108765            4.3401935      5.28170729e-005           155.851578
8.462014049999999e-005            112.94893         0.0205160089          -20.4185607 6.369013030000001e-005           9.34876111  0.08901227840000001           15.0129937
         0.092108765            4.3401935 6.369013030000001e-005           9.34876111          0.024378104            -50.11211        0.00029332577          -16.6353296
     5.28170729e-005           155.851578  0.08901227840000001           15.0129937        0.00029332577          -16.6353296  0.02668039310000001          -15.8159227

!
           250000000         0.0215443419   -68.20084660000001       9.3042765e-005            83.625671         0.0973136403          -11.3550393      4.90410724e-005           133.145359
      9.3042765e-005            83.625671         0.0277638586          -18.2994316      8.40755536e-005   -5.856934920000001         0.0991146514  -0.2809446720000001
        0.0973136403          -11.3550393      8.40755536e-005   -5.856934920000001         0.0243623211          -52.4346253       0.000311411018          -35.3562888
     4.90410724e-005           133.145359         0.0991146514  -0.2809446720000001       0.000311411018          -35.3562888         0.0344275196          -18.5311659

!
           260000000         0.0139154039          -101.960949      9.97764486e-005    54.70537980000001         0.0909787198          -27.4948458      4.37570229e-005           111.901968
     9.97764486e-005    54.70537980000001         0.0249794583          -25.2813189       0.000107301804          -25.7781503         0.0982620964          -15.7309279
        0.0909787198          -27.4948458       0.000107301804          -25.7781503         0.0155604949          -74.9642279       0.000331527436          -54.6057567
     4.37570229e-005           111.901968         0.0982620964          -15.7309279       0.000331527436          -54.6057567         0.0317492467   -28.02812589999999

!
           270000000         0.0176369229           160.944337       0.000104191652           25.9091139          0.073529471          -43.4721322      3.72602338e-005    93.70620580000001
      0.000104191652           25.9091139         0.0117246592           -19.726464       0.000131655767   -48.55201930000001         0.0865057336          -30.7127849
         0.073529471          -43.4721322       0.000131655767   -48.55201930000001         0.0105644671           167.689756        0.00035270639          -74.5170998
     3.72602338e-005    93.70620580000001         0.0865057336          -30.7127849        0.00035270639          -74.5170998         0.0179629722           -33.593075

!
           280000000         0.0457827441           118.903595       0.000105463051   -2.861451670000001  0.04661454290000001          -57.6921588      3.08241403e-005           81.8532846
      0.000105463051   -2.861451670000001         0.0166911787           88.7436289       0.000155345518          -73.1693964         0.0649382937          -43.8560971
 0.04661454290000001          -57.6921588       0.000155345518          -73.1693964         0.0386333065            116.09819       0.000373122085            -95.13382
     3.08241403e-005           81.8532846         0.0649382937          -43.8560971       0.000373122085            -95.13382        0.00976324586           77.0099087

!
           290000000         0.0832578433           95.5566894       0.000102884067          -31.4675173         0.0141466486   -53.82995960000001      2.77056469e-005           79.2242151
      0.000102884067          -31.4675173         0.0497164334           88.0599793       0.000176295263           -98.926394         0.0364985789          -49.0065708
        0.0141466486   -53.82995960000001       0.000176295263           -98.926394  0.07617910059999999           93.5502355       0.000390292998          -116.340971
     2.77056469e-005           79.2242151         0.0364985789          -49.0065708       0.000390292998          -116.340971         0.0421064946    88.60376410000001

!
           300000000          0.124354283           75.7710027      9.63044134e-005          -59.5616544         0.0254574427           62.0278105      3.12682973e-005           78.0335944
     9.63044134e-005          -59.5616544         0.0889466003           74.6932714       0.000192602269          -125.179845         0.0165279217    5.713329310000001
        0.0254574427           62.0278105       0.000192602269          -125.179845          0.117252402           74.3040695       0.000401927919          -137.841461
     3.12682973e-005           78.0335944         0.0165279217    5.713329310000001       0.000401927919          -137.841461         0.0812636551    75.55342159999999

!
           310000000          0.164387587    57.29156669999999 8.633900419999998e-005            -86.71932  0.06008697490000001           54.3520366      3.98851486e-005    67.69908270000001
8.633900419999998e-005            -86.71932           0.12965466           59.0929569         0.0002032825          -151.327794         0.0418254692           46.9975456
 0.06008697490000001           54.3520366         0.0002032825          -151.327794          0.157242706           56.1286396       0.000407072047          -159.223828
     3.98851486e-005    67.69908270000001         0.0418254692           46.9975456       0.000407072047          -159.223828          0.121969467            59.907364

!
           320000000          0.199447629           39.6414802 7.409786079999998e-005            -112.6128  0.09023193490000001           40.1199294 4.970183319999999e-005           49.7762157
7.409786079999998e-005            -112.6128          0.167618603           42.9005944       0.000208659755          -176.902208         0.0734217095           40.4487657
 0.09023193490000001           40.1199294       0.000208659755          -176.902208          0.192245473           38.6539822 0.0004066775309999999           179.898037
4.970183319999999e-005           49.7762157         0.0734217095           40.4487657 0.0004066775309999999           179.898037          0.159982011           43.6588083

!
           330000000          0.226881948           22.6740557      6.06270493e-005          -137.109082           0.11327308           25.2505914 5.844591479999999e-005           28.3587142
     6.06270493e-005          -137.109082          0.199517527           26.6833635        0.00021005198           158.342109          0.100098459           27.8204443
          0.11327308           25.2505914        0.00021005198           158.342109          0.219590205           21.7881062       0.000403111986           159.755126
5.844591479999999e-005           28.3587142          0.100098459           27.8204443       0.000403111986           159.755126          0.191954435           27.4080919

!
           340000000          0.245270048           6.27103666      4.64932279e-005          -160.182982          0.128092706            10.587163 6.533155010000001e-005    5.787874510000001
     4.64932279e-005          -160.182982           0.22325457           10.6508081       0.000209050588           134.411779          0.119408493           13.9030693
         0.128092706            10.587163       0.000209050588           134.411779           0.23783455           5.44024057       0.000399072906           140.372189
6.533155010000001e-005    5.787874510000001          0.119408493           13.9030693       0.000399072906           140.372189          0.215759714           11.3679623

!
           350000000           0.25404022   -9.711316630000001      3.17224929e-005           178.553613          0.134356908          -3.70146626       7.0387359e-005          -16.8294543
     3.17224929e-005           178.553613          0.237786931   -5.176773650000001       0.000206899853           111.129007          0.130432942  -0.2729523360000001
         0.134356908          -3.70146626       0.000206899853           111.129007          0.246390623          -10.5189649       0.000396686359           121.598697
      7.0387359e-005          -16.8294543          0.130432942  -0.2729523360000001       0.000396686359           121.598697          0.230330405   -4.439939600000001

!
           360000000          0.253077326          -25.4248765      1.60726488e-005           162.775116          0.132076306          -17.5714197 7.402330280000002e-005          -39.0102524
     1.60726488e-005           162.775116          0.242738195          -20.8846095       0.000204190849    88.21685720000001          0.132909365          -14.4474643
         0.132076306          -17.5714197       0.000204190849    88.21685720000001          0.245136895          -26.2335263       0.000397104048           103.183257
7.402330280000002e-005          -39.0102524          0.132909365          -14.4474643       0.000397104048           103.183257          0.235276687          -20.0967501

!
           370000000          0.242534368          -40.9899698      4.90595963e-006           -121.06477          0.121457281           -30.858939      7.68042025e-005   -60.60783390000001
     4.90595963e-006           -121.06477           0.23808768          -36.6025664       0.000200799818    65.38750540000001           0.12684774          -28.5468797
         0.121457281           -30.858939       0.000200799818    65.38750540000001          0.234231607          -41.8189449 0.0004004653320000001           84.8562283
     7.68042025e-005   -60.60783390000001           0.12684774          -28.5468797 0.0004004653320000001           84.8562283          0.230577789          -35.7234612

!
           380000000          0.222910306          -56.4436094      2.23439301e-005          -93.1349592          0.103111853          -42.9571024 7.931797389999999e-005          -81.7217756
     2.23439301e-005          -93.1349592          0.224080677          -52.4552842       0.000195965519    42.42830769999999          0.112468835          -42.4231368
         0.103111853          -42.9571024       0.000195965519    42.42830769999999          0.214191462          -57.3074482       0.000406037092           66.4047525
7.931797389999999e-005          -81.7217756          0.112468835          -42.4231368       0.000406037092           66.4047525          0.216492666          -51.4279779

!
           390000000          0.195356251          -71.6748427      4.41382236e-005           -112.90815  0.07869501230000001          -51.9936921      8.20082426e-005          -102.679521
     4.41382236e-005           -112.90815          0.201379999          -68.5184057       0.000188501655    19.29028900000001         0.0904459581          -55.5241224