! Tyco Electronics Strada Whisper System
! FEXT_G1415_G1112
!! 
!! SYSTEM DESCRIPTION: Daughtercard-Footprint-Connector-Footprint-Daughtercard
!! PCB DESCRIPTION: DC: 140mil, Megtron7N, upper layer route, 15mil stub, 6-6-6mil 14" traces
!! CONNECTOR DESCRIPTION: Next-Gen STRADA Whisper Direct-Plug Orthogonal Connector
!! MODEL DESCRIPTION: Tyco Electronics System 4-port S-parameter 
!! MODEL STATUS: Developmental
!! MODEL GEOMETRY: Channel Model
!! MODEL FREQUENCY RANGE: DC to 60 GHz in 10 MHz frequency steps
!! MODEL EDGE RATE LIMITATION: 8.3 ps (Using conservative 0.5/Fmax rule of thumb)
!! 
!! TIME-DOMAIN TRANSFORM CAUTIONS: 
!! 1.) Do not simulate transient edge rates faster than the number listed above.  Edge rates faster than this number 
!!     contain significant spectral content at frequencies above the model's highest frequency. 
!! 2.) Even when simulating edge rates that are slower than the number listed above, be aware that the best time 
!!     resolution possible with a direct iFFT is (1 / 2Fmax).  As a result, time resolution is typically not adequate 
!!     for most time-domain simulations unless tricks such as windowing are used to minimize leakage and aliasing. 
!! 3.) Because the model has a uniform frequency step, a direct iFFT will result in an impulse that that has a time 
!!     length given by either (1 / Fstep) or (1 / 2Fstep), depending on the transform being used.  Care has been taken 
!!     in selecting the frequency step to ensure a settled impulse response for the model.  Therefore, convolution with 
!!     the model's impulse response should present no issues.  However, if directly concatenating s-parameter models 
!!     in the frequency domain a user must either interpolate necessary interim frequencies or complete impulse response 
!!     zero-padding.  Impulse response zero-padding is more difficult, but more accurate. 
!! 
!! PORT DEFINITIONS: 
!! Port   1  ----->  TX Side	G14     G11     RX Side  <-----  Port   3
!! Port   2  ----->  TX Side	G15     G12     RX Side  <-----  Port   4
!! 
!!!!!!!!!!!!!!!!!!!!!!!!!!!!!!!!!!!!!!!!!!!!!!!!!!!!!!!!!!!!!!!!!!!!!!!!!!!!!!!!!!!!!!!!!!!!!!!!!!!!!!!!!!!!!!!!!!!!!!!!
! Touchstone data
! Created: 10-Dec-2018 by IdEM R2012 (8.0.5)
# Hz S MA R 50

!
                   0         0.0571794386                    0      4.94479113e-006                  180        0.00188994223                    0      1.47097374e-005                  180
     4.94479113e-006                  180         0.0585766729                    0      2.22192119e-006                  180        0.00205040061                    0
       0.00188994223                    0      2.22192119e-006                  180          0.057288483                    0      4.89679224e-006                  180
     1.47097374e-005                  180        0.00205040061                    0      4.89679224e-006                  180         0.0589636213                    0

!
            10000000         0.0692904263           14.7478858 7.925800130000001e-006           109.895293         0.0382171439    68.81419220000001      1.90947406e-005          -160.282796
7.925800130000001e-006           109.895293         0.0707012427           14.4732155      6.23103656e-006           -127.54986          0.037212825           68.5475807
        0.0382171439    68.81419220000001      6.23103656e-006           -127.54986  0.06955529979999998           14.9192198      1.68580197e-005          -126.354711
     1.90947406e-005          -160.282796          0.037212825           68.5475807      1.68580197e-005          -126.354711  0.07124672730000001           14.5739725

!
            20000000         0.0907164853           14.6787237      1.33995654e-005           74.3772839  0.07199032330000001           52.0565344      2.80670108e-005          -161.377192
     1.33995654e-005           74.3772839         0.0922870202           14.4309292      1.21183317e-005           -134.25479         0.0699833867           52.0037087
 0.07199032330000001           52.0565344      1.21183317e-005           -134.25479  0.09127562810000001           14.8753113      3.25382983e-005          -137.522572
     2.80670108e-005          -161.377192         0.0699833867           52.0037087      3.25382983e-005          -137.522572         0.0931641756           14.5477658

!
            30000000          0.108995476           6.06741603      1.94607725e-005            48.696593  0.09808281169999999           34.6562287      3.78314682e-005           -172.03607
     1.94607725e-005            48.696593          0.110853057           5.89823196      1.86566741e-005          -148.105214         0.0950947773           34.7268374
 0.09808281169999999           34.6562287      1.86566741e-005          -148.105214          0.109862358           6.26169865 4.845261270000001e-005          -153.912057
     3.78314682e-005           -172.03607         0.0950947773           34.7268374 4.845261270000001e-005          -153.912057          0.112112974            6.0093019

!
            40000000           0.11839076          -6.37438476      2.58136892e-005           26.0488105          0.114238665    17.27257270000001      4.73586246e-005           173.883025
     2.58136892e-005           26.0488105          0.120586799          -6.47218331 2.594583610000001e-005           -164.52096          0.110280901           17.4676652
         0.114238665    17.27257270000001 2.594583610000001e-005           -164.52096          0.119560858   -6.172788359999999 6.469748579999998e-005          -171.657136
     4.73586246e-005           173.883025          0.110280901           17.4676652 6.469748579999998e-005          -171.657136          0.122254666   -6.368498560000001

!
            50000000          0.116441076          -20.7881871      3.23837159e-005    4.546501860000001          0.119143731        -0.0559793526      5.64913983e-005           158.457494
     3.23837159e-005    4.546501860000001          0.118971582          -20.8106728      3.40628455e-005           177.377267          0.114215644          0.305342496
         0.119143731        -0.0559793526      3.40628455e-005           177.377267          0.117912272          -20.5592654       8.1545975e-005           169.868324
     5.64913983e-005           158.457494          0.114215644          0.305342496       8.1545975e-005           169.868324          0.121071069          -20.7148273

!
            60000000          0.102199946          -36.5618353 3.911435390000001e-005          -16.5197778          0.112195218          -17.3669671      6.53021912e-005           142.401902
3.911435390000001e-005          -16.5197778          0.105026359          -36.4615637      4.29396675e-005           157.848775          0.106292542          -16.7348416
         0.112195218          -17.3669671      4.29396675e-005           157.848775          0.103973345          -36.2682396 9.911940150000001e-005           150.709426
     6.53021912e-005           142.401902          0.106292542          -16.7348416 9.911940150000001e-005           150.709426          0.107581273          -36.3765449

!
            70000000         0.0757321196   -53.74519169999999      4.59193373e-005   -37.46816020000001         0.0935375094          -34.5445312 7.383758570000001e-005           125.962686
     4.59193373e-005   -37.46816020000001         0.0788042865          -53.3402735      5.22749192e-005           137.046053  0.08668089129999999   -33.36797300000001
        0.0935375094          -34.5445312      5.22749192e-005           137.046053         0.0778056382          -53.2872684        0.00011714306           130.815363
7.383758570000001e-005           125.962686  0.08668089129999999   -33.36797300000001        0.00011714306           130.815363  0.08183185260000001   -53.27077469999999

!
            80000000         0.0383290366          -73.9868463      5.26666498e-005          -58.4449492         0.0644487188          -50.8083996      8.20126053e-005           109.278457
     5.26666498e-005          -58.4449492         0.0415855165          -72.2918705      6.14798893e-005           115.191863  0.05677195049999999   -48.10490949999999
        0.0644487188          -50.8083996      6.14798893e-005           115.191863         0.0406716849           -72.831941       0.000134807098           110.229001
     8.20126053e-005           109.278457  0.05677195049999999   -48.10490949999999       0.000134807098           110.229001         0.0450862176   -72.18163730000001

!
            90000000         0.0087517147           123.906441      5.91721573e-005   -79.50020739999999  0.02803484020000001          -60.6218201      8.96768331e-005           92.5519341
     5.91721573e-005   -79.50020739999999        0.00483386202           129.460527      6.97560385e-005            92.665791         0.0206034622   -47.49887230000001
 0.02803484020000001          -60.6218201      6.97560385e-005            92.665791        0.00614051812           131.256726       0.000150890891           89.1784942
     8.96768331e-005           92.5519341         0.0206034622   -47.49887230000001       0.000150890891           89.1784942        0.00314057814          -175.966984

!
           100000000          0.057330546           81.1006332      6.52025527e-005          -100.605033         0.0154166401    56.45771069999999      9.68635376e-005    76.06277849999999
     6.52025527e-005          -100.605033  0.05310397879999999    78.98853269999999       7.6368124e-005           69.9958281         0.0254972154           60.9555755
        0.0154166401    56.45771069999999       7.6368124e-005           69.9958281         0.0543099431    80.63078640000001       0.000164248624           68.0708783
     9.68635376e-005    76.06277849999999         0.0254972154           60.9555755       0.000164248624           68.0708783  0.04881798860000001    79.88857520000001

!
           110000000          0.105359957           61.2725028      7.05211085e-005            -121.6466         0.0531920946           59.0667595       0.000104027039           60.0202164
     7.05211085e-005            -121.6466          0.100590323    59.65940380000001 8.098216950000002e-005           47.7410728  0.06402561060000001           56.9716103
        0.0531920946           59.0667595 8.098216950000002e-005           47.7410728          0.102105916           60.9369883       0.000174432552    47.37898629999999
      0.000104027039           60.0202164  0.06402561060000001           56.9716103       0.000174432552    47.37898629999999         0.0959712558    60.19305910000001

!
           120000000          0.147324288           43.0344534 7.498646699999999e-005          -142.455002  0.08657621400000001           44.5159686       0.000111976473           44.3880887
7.498646699999999e-005          -142.455002          0.141863887            41.617413      8.37950836e-005           26.3328613         0.0978478512           42.3706561
 0.08657621400000001           44.5159686      8.37950836e-005           26.3328613          0.143846126    42.76003309999999       0.000181980931           27.4801675
      0.000111976473           44.3880887         0.0978478512           42.3706561       0.000181980931           27.4801675          0.136983544    42.07504480000001

!
           130000000          0.179994007           25.5971749       7.8622745e-005          -162.875709          0.111743356    28.66015819999999       0.000121524965    28.87234820000001
      7.8622745e-005          -162.875709          0.173773988    24.28222570000001      8.53640268e-005           5.98413042          0.123404206            26.479959
         0.111743356    28.66015819999999      8.53640268e-005           5.98413042          0.176291799           25.3503287         0.0001881754           8.54370842
      0.000121524965    28.87234820000001          0.123404206            26.479959         0.0001881754           8.54370842          0.168674508           24.7293368

!
           140000000          0.201750459    8.749634919999998 8.158487870000001e-005           177.169355          0.127298958           12.8244279        0.00013318977           13.0785528
8.158487870000001e-005           177.169355           0.19477245    7.488884480000002      8.63319032e-005          -13.2926836          0.139321049           10.4785608
         0.127298958           12.8244279      8.63319032e-005          -13.2926836           0.19780819           8.51351086       0.000194555275   -9.489727029999999
       0.00013318977           13.0785528          0.139321049           10.4785608       0.000194555275   -9.489727029999999          0.189468297    7.958868399999998

!
           150000000          0.212084574   -7.680989210000001       8.4058048e-005           157.679328          0.132839803          -2.78103028       0.000147124697   -3.329859110000001
      8.4058048e-005           157.679328          0.204401043   -8.928749939999999 8.726000520000001e-005          -31.6112556          0.145210515   -5.455929339999999
         0.132839803          -2.78103028 8.726000520000001e-005          -31.6112556          0.207872319   -7.916022650000001       0.000202531158          -26.8656637
      0.000147124697   -3.329859110000001          0.145210515   -5.455929339999999       0.000202531158          -26.8656637          0.198884531          -8.40613666

!
           160000000          0.211079045   -23.85878470000001 8.618047909999999e-005            138.62007          0.128399989          -18.1548161        0.00016316205          -20.5757165
8.618047909999999e-005            138.62007          0.202767507          -25.1444986      8.86007712e-005          -49.1506013          0.141105766          -21.3921881
         0.128399989          -18.1548161      8.86007712e-005          -49.1506013          0.206559537   -24.09817410000001       0.000213166323           -43.950711
       0.00016316205          -20.5757165          0.141105766          -21.3921881       0.000213166323           -43.950711          0.197019617          -24.5314668

!
           170000000          0.199179503   -39.89054479999999      8.80409333e-005           119.980615          0.114281078          -33.2071821       0.000180801927          -38.7768895
     8.80409333e-005           119.980615          0.190315246          -41.2876972      9.07275524e-005          -66.1379482          0.127280227          -37.4148434
         0.114281078          -33.2071821      9.07275524e-005          -66.1379482          0.194317215            -40.13543       0.000227022454          -61.1562763
      0.000180801927          -38.7768895          0.127280227          -37.4148434       0.000227022454          -61.1562763          0.184320297          -40.5256696

!
           180000000          0.177326186          -55.7456837      8.97567968e-005             101.8021         0.0912911797          -47.3967074       0.000199133167          -57.9523148
     8.97567968e-005             101.8021          0.167953101   -57.36620820000001      9.39319027e-005          -82.8550587          0.104443991          -53.4582473
        0.0912911797          -47.3967074      9.39319027e-005          -82.8550587          0.172097847           -55.988592        0.00024400507   -78.84698659999999
      0.000199133167          -57.9523148          0.104443991          -53.4582473        0.00024400507   -78.84698659999999          0.161717638          -56.3511798

!
           190000000          0.147348917          -71.1329282 9.159253089999999e-005    84.14080629999999         0.0613675393          -58.5205098       0.000216814384          -78.0041196
9.159253089999999e-005    84.14080629999999          0.137446129   -73.14941930000001      9.83594359e-005          -99.6142971  0.07417787660000001           -68.988834
        0.0613675393          -58.5205098      9.83594359e-005          -99.6142971          0.141754181           -71.341731       0.000263286459          -97.2449548
      0.000216814384          -78.0041196  0.07417787660000001           -68.988834       0.000263286459          -97.2449548          0.131025704   -71.67063589999999

!
           200000000          0.112360837          -85.2732745      9.40028429e-005           66.9535691         0.0295478842          -54.0976805       0.000232293939   -98.70139470000001
     9.40028429e-005           66.9535691          0.101801352          -87.9362563       0.000103958573          -116.675859         0.0393827763   -81.33173050000001
        0.0295478842          -54.0976805       0.000103958573          -116.675859          0.106434643          -85.3310705       0.000283490519          -116.369305
      0.000232293939   -98.70139470000001         0.0393827763   -81.33173050000001       0.000283490519          -116.369305  0.09535335170000001          -85.4891085

!
           210000000         0.0768185985   -96.33168360000001      9.74672458e-005           49.9929831         0.0235901713           14.6083724       0.000244304102          -119.708274
     9.74672458e-005           49.9929831         0.0653147775   -99.82727509999999       0.000110558574          -134.171468        0.00795765037          -38.8095073
        0.0235901713           14.6083724       0.000110558574          -134.171468  0.07067348699999999          -95.7742779       0.000303221984          -136.056774
      0.000244304102          -119.708274        0.00795765037          -38.8095073       0.000303221984          -136.056774           0.05928034          -94.8756817

!
           220000000         0.0462909637   -99.70092200000001       0.000102187356    32.86986510000001         0.0509891522    28.68855350000001        0.00025235296          -140.671246
      0.000102187356    32.86986510000001         0.0334675045          -102.082786       0.000118045166          -152.132463         0.0311848558           38.5780838
        0.0509891522    28.68855350000001       0.000118045166          -152.132463         0.0404010289   -96.39664240000001          0.000321681          -156.068101
       0.00025235296          -140.671246         0.0311848558           38.5780838          0.000321681          -156.068101         0.0296248321   -88.37779070000001

!
           230000000         0.0275529004   -86.19319670000002       0.000107957899           15.2680373         0.0759952666            18.708098       0.000256814799          -161.324986
      0.000107957899           15.2680373          0.016031301          -66.5662463       0.000126430294          -170.598575         0.0566230746           27.8989635
        0.0759952666            18.708098       0.000126430294          -170.598575         0.0241651651           -73.672741       0.000338893543          -176.220518
      0.000256814799          -161.324986         0.0566230746           27.8989635       0.000338893543          -176.220518         0.0208525942          -43.3943814

!
           240000000          0.023354254          -66.1258844       0.000114345736          -2.91901687          0.092108765            4.3401935       0.000258539685           178.447711
      0.000114345736          -2.91901687         0.0202110596          -28.8980651       0.000135710818            170.31588  0.07277996370000001           13.2830981
         0.092108765            4.3401935       0.000135710818            170.31588          0.024378104            -50.11211       0.000355369524           163.533307
      0.000258539685           178.447711  0.07277996370000001           13.2830981       0.000355369524           163.533307  0.02920471570000001          -25.0651913

!
           250000000         0.0215443419   -68.20084660000001       0.000120953151          -21.6341283         0.0973136403          -11.3550393        0.00025829333           158.632157
      0.000120953151          -21.6341283          0.022289062          -28.3734747       0.000145633086           150.453695         0.0780143606          -1.56902122
        0.0973136403          -11.3550393       0.000145633086           150.453695         0.0243623211          -52.4346253       0.000371453392           143.113251
       0.00025829333           158.632157         0.0780143606          -1.56902122       0.000371453392           143.113251         0.0317519374          -30.5487746

!
           260000000         0.0139154039          -101.960949       0.000127545646          -40.7747892         0.0909787198          -27.4948458       0.000256371911           139.159416
      0.000127545646          -40.7747892         0.0137015609   -32.00586600000001       0.000155518195           129.698744         0.0720009687           -15.287256
        0.0909787198          -27.4948458       0.000155518195           129.698744         0.0155604949          -74.9642279       0.000386749189           122.384953
      0.000256371911           139.159416         0.0720009687           -15.287256       0.000386749189           122.384953         0.0231613262          -41.5972169

!
           270000000         0.0176369229           160.944337       0.000134021134          -60.2798748          0.073529471          -43.4721322 0.0002525615289999999           120.014418
      0.000134021134          -60.2798748        0.00814625653    89.15129030000001       0.000164231511           108.059337         0.0558286169          -25.2872745
         0.073529471          -43.4721322       0.000164231511           108.059337         0.0105644671           167.689756       0.000399869104           101.259289
0.0002525615289999999           120.014418         0.0558286169          -25.2872745       0.000399869104           101.259289        0.00340270899          -31.9357589

!
           280000000         0.0457827441           118.903595       0.000140265775          -80.1574664  0.04661454290000001          -57.6921588       0.000246504169           101.337127
      0.000140265775          -80.1574664         0.0376991815    96.05024470000001       0.000170376333            85.728607         0.0339674854          -20.9481846
 0.04661454290000001          -57.6921588       0.000170376333            85.728607         0.0386333065            116.09819       0.000408678781           79.7834952
      0.000246504169           101.337127         0.0339674854          -20.9481846       0.000408678781           79.7834952         0.0272448202           100.099643

!
           290000000         0.0832578433           95.5566894       0.000145967648          -100.442681         0.0141466486   -53.82995960000001       0.000238405489    83.45413360000001
      0.000145967648          -100.442681  0.07502852009999998           82.4187261       0.000172766089           63.0984541         0.0277930163           26.9573186
        0.0141466486   -53.82995960000001       0.000172766089           63.0984541  0.07617910059999999           93.5502355       0.000411124552           58.1878823
      0.000238405489    83.45413360000001         0.0277930163           26.9573186       0.000411124552           58.1878823  0.06457738440000001           85.2393579

!
           300000000          0.124354283           75.7710027       0.000150566794          -121.099197         0.0254574427           62.0278105       0.000229679455            66.759772
      0.000150566794          -121.099197          0.115442299           66.4796544       0.000171007664           40.6936878         0.0538241243           47.6274268
        0.0254574427           62.0278105       0.000171007664           40.6936878          0.117252402           74.3040695        0.00040635482           36.8536665
      0.000229679455            66.759772         0.0538241243           47.6274268        0.00040635482           36.8536665          0.105054161           68.6601982

!
           310000000          0.164387587    57.29156669999999       0.000153498299          -141.951511  0.06008697490000001           54.3520366       0.000222855536           51.4381036
      0.000153498299          -141.951511          0.154514795           49.9714215       0.000165768291           19.0288051          0.085858714            41.529979
 0.06008697490000001           54.3520366       0.000165768291           19.0288051          0.157242706           56.1286396       0.000395391374           16.2027161
      0.000222855536           51.4381036          0.085858714            41.529979       0.000395391374           16.2027161          0.144272762           51.8116161

!
           320000000          0.199447629           39.6414802       0.000154557691          -162.731872  0.09023193490000001           40.1199294       0.000220540648           37.2090386
      0.000154557691          -162.731872          0.188516763           33.4764911        0.00015845685          -1.54080924           0.11434125    29.35130359999999
 0.09023193490000001           40.1199294        0.00015845685          -1.54080924          0.192245473           38.6539822        0.00038080731          -3.43295562
      0.000220540648           37.2090386           0.11434125    29.35130359999999        0.00038080731          -3.43295562          0.178477768    35.13215460000001

!
           330000000          0.226881948           22.6740557       0.000154023849            176.79817           0.11327308           25.2505914       0.000224232846           23.3794935
      0.000154023849            176.79817          0.214945671           17.2244239       0.000150586684          -20.8843518          0.136074368           15.4613855
          0.11327308           25.2505914       0.000150586684          -20.8843518          0.219590205           21.7881062       0.000365746192   -21.89157730000001
      0.000224232846           23.3794935          0.136074368           15.4613855       0.000365746192   -21.89157730000001          0.205123879           18.7927149

!
           340000000          0.245270048           6.27103666       0.000152455783           156.759069          0.128092706            10.587163       0.000233987883    9.196059440000001
      0.000152455783           156.759069          0.232475982           1.24835352       0.000143314333          -39.0571613          0.149747264           1.03040294
         0.128092706            10.587163       0.000143314333          -39.0571613           0.23783455           5.44024057       0.000353076357          -39.1945407
      0.000233987883    9.196059440000001          0.149747264           1.03040294       0.000353076357          -39.1945407           0.22284643           2.80274595

!
           350000000           0.25404022   -9.711316630000001       0.000150389749           137.145613          0.134356908          -3.70146626       0.000248942183   -5.855801680000001
      0.000150389749           137.145613           0.24056902          -14.5373682       0.000137353538          -56.2137602          0.154923894          -13.6374652
         0.134356908          -3.70146626       0.000137353538          -56.2137602          0.246390623          -10.5189649       0.000345058382          -55.5268541
      0.000248942183   -5.855801680000001          0.154923894          -13.6374652       0.000345058382          -55.5268541          0.231082318          -12.9290403

!
           360000000          0.253077326          -25.4248765       0.000148143007           117.878785          0.132076306          -17.5714197 0.0002679239099999999          -22.0156933
      0.000148143007           117.878785          0.239088445          -30.2765961       0.000133134152   -72.54288889999999          0.151517753          -28.5419807
         0.132076306          -17.5714197       0.000133134152   -72.54288889999999          0.245136895          -26.2335263        0.00034334328          -71.2185221
0.0002679239099999999          -22.0156933          0.151517753          -28.5419807        0.00034334328          -71.2185221          0.229689484          -28.5388296

!
           370000000          0.242534368          -40.9899698       0.000145776816    98.88046660000001          0.121457281           -30.858939       0.000289661938          -39.3528674
      0.000145776816    98.88046660000001          0.228120513          -46.1200163       0.000130998144          -88.2637288          0.139595192          -43.7802988
         0.121457281           -30.858939       0.000130998144          -88.2637288          0.234231607          -41.8189449       0.000348962671            -86.72183
      0.000289661938          -39.3528674          0.139595192          -43.7802988       0.000348962671            -86.72183          0.218768108          -44.1546348

!
           380000000          0.222910306          -56.4436094       0.000143200527           80.1433607          0.103111853          -42.9571024 0.0003126533889999999          -57.8481928
      0.000143200527           80.1433607          0.208056613          -62.1779695       0.000131278631          -103.674998          0.119488505          -59.4365342
         0.103111853          -42.9571024       0.000131278631          -103.674998          0.214191462          -57.3074482       0.000362129833          -102.549917
0.0003126533889999999          -57.8481928          0.119488505          -59.4365342       0.000362129833          -102.549917          0.198743573   -59.84060550000001

!
           390000000          0.195356251          -71.6748427       0.000140391266    61.76561180000001  0.07869501230000001          -51.9936921       0.000334983784          -77.4085874
      0.000140391266    61.76561180000001          0.179902595          -78.4757487       0.000134184156          -119.188495  0.09213920909999999          -75.4951483
 0.07869501230000001          -51.9936921       0.000134184156          -119.188495          0.186196945          -72.5780621       0.000381937726           -119.15778