! Tyco Electronics Strada Whisper System
! NEXT_F1112_G1112
!! 
!! SYSTEM DESCRIPTION: Daughtercard-Footprint-Connector-Footprint-Daughtercard
!! PCB DESCRIPTION: DC: 140mil, Megtron7N, upper layer route, 15mil stub, 6-6-6mil 14" traces
!! CONNECTOR DESCRIPTION: Next-Gen STRADA Whisper Direct-Plug Orthogonal Connector
!! MODEL DESCRIPTION: Tyco Electronics System 4-port S-parameter 
!! MODEL STATUS: Developmental
!! MODEL GEOMETRY: Channel Model
!! MODEL FREQUENCY RANGE: DC to 60 GHz in 10 MHz frequency steps
!! MODEL EDGE RATE LIMITATION: 8.3 ps (Using conservative 0.5/Fmax rule of thumb)
!! 
!! TIME-DOMAIN TRANSFORM CAUTIONS: 
!! 1.) Do not simulate transient edge rates faster than the number listed above.  Edge rates faster than this number 
!!     contain significant spectral content at frequencies above the model's highest frequency. 
!! 2.) Even when simulating edge rates that are slower than the number listed above, be aware that the best time 
!!     resolution possible with a direct iFFT is (1 / 2Fmax).  As a result, time resolution is typically not adequate 
!!     for most time-domain simulations unless tricks such as windowing are used to minimize leakage and aliasing. 
!! 3.) Because the model has a uniform frequency step, a direct iFFT will result in an impulse that that has a time 
!!     length given by either (1 / Fstep) or (1 / 2Fstep), depending on the transform being used.  Care has been taken 
!!     in selecting the frequency step to ensure a settled impulse response for the model.  Therefore, convolution with 
!!     the model's impulse response should present no issues.  However, if directly concatenating s-parameter models 
!!     in the frequency domain a user must either interpolate necessary interim frequencies or complete impulse response 
!!     zero-padding.  Impulse response zero-padding is more difficult, but more accurate. 
!! 
!! PORT DEFINITIONS: 
!! Port   1  ----->  RX Side	F11     G11     RX Side  <-----  Port   3
!! Port   2  ----->  RX Side	F12     G12     RX Side  <-----  Port   4
!! 
!!!!!!!!!!!!!!!!!!!!!!!!!!!!!!!!!!!!!!!!!!!!!!!!!!!!!!!!!!!!!!!!!!!!!!!!!!!!!!!!!!!!!!!!!!!!!!!!!!!!!!!!!!!!!!!!!!!!!!!!
! Touchstone data
! Created: 10-Dec-2018 by IdEM R2012 (8.0.5)
# Hz S MA R 50

!
                   0         0.0574742849                    0      2.58529329e-005                    0        0.00170201038                    0      2.37287527e-005                    0
     2.58529329e-005                    0         0.0557629906                    0      2.26478866e-005                    0        0.00157175088                    0
       0.00170201038                    0      2.26478866e-005                    0         0.0577228862                    0      2.58831842e-005                    0
     2.37287527e-005                    0        0.00157175088                    0      2.58831842e-005                    0         0.0559767359                    0

!
            10000000         0.0694620022           14.5548236      2.67454352e-005          -39.4953765         0.0381053265           69.1095096      2.44461398e-005          -38.2918213
     2.67454352e-005          -39.4953765  0.06833001429999999    15.85765930000001      2.31721885e-005          -36.3248318         0.0378899684           69.5099218
        0.0381053265           69.1095096      2.31721885e-005          -36.3248318         0.0698680944           14.6884231      2.52836115e-005          -28.1556567
     2.44461398e-005          -38.2918213         0.0378899684           69.5099218      2.52836115e-005          -28.1556567  0.06871611330000001           16.0147881

!
            20000000         0.0906842928           14.4981402      2.94817079e-005   -76.22224320000001  0.07178283520000001            52.246734      2.66336581e-005          -73.7044666
     2.94817079e-005   -76.22224320000001         0.0905748492           16.1158102      2.48978855e-005          -70.4802553         0.0714954723            52.783419
 0.07178283520000001            52.246734      2.48978855e-005          -70.4802553         0.0914041241           14.6489878      2.39302961e-005   -56.41189430000001
     2.66336581e-005          -73.7044666         0.0714954723            52.783419      2.39302961e-005   -56.41189430000001         0.0912975831           16.2927202

!
            30000000          0.108772828           5.94750808 3.369139789999999e-005          -109.132174  0.09778121289999998           34.8361739      2.99499505e-005          -105.189217
3.369139789999999e-005          -109.132174           0.10983369           7.70337826      2.77299368e-005          -101.560304         0.0976651692           35.5732142
 0.09778121289999998           34.8361739      2.77299368e-005          -101.560304          0.109838674    6.089526199999999       2.2283425e-005          -85.3143353
     2.99499505e-005          -105.189217         0.0976651692           35.5732142       2.2283425e-005          -85.3143353           0.11092791    7.872912419999998

!
            40000000          0.117989794          -6.42401121      3.91959213e-005          -138.716842          0.113846182           17.4752712      3.42480264e-005          -133.235968
     3.91959213e-005          -138.716842          0.120462019          -4.47955797      3.17021955e-005          -129.879159          0.114225455            18.437278
         0.113846182           17.4752712      3.17021955e-005          -129.879159          0.119411839          -6.28873973      2.09481535e-005          -115.876446
     3.42480264e-005          -133.235968          0.114225455            18.437278      2.09481535e-005          -115.876446          0.121944315   -4.314562609999999

!
            50000000           0.11586537          -20.7492961      4.60549359e-005          -166.069554          0.118663081          0.198370535      3.95974915e-005          -159.007787
     4.60549359e-005          -166.069554          0.120069688          -18.5207865      3.69587235e-005          -156.431518          0.119915146            1.4022911
         0.118663081          0.198370535      3.69587235e-005          -156.431518          0.117654434          -20.6145958      2.06264752e-005          -149.159864
     3.95974915e-005          -159.007787          0.119915146            1.4022911      2.06264752e-005          -149.159864           0.12195929   -18.35478270000001

!
            60000000           0.10144739          -36.3854264      5.43840864e-005           167.680482          0.111630278          -17.0167189      4.60797102e-005           176.243355
     5.43840864e-005           167.680482          0.107731776   -33.72683560000001 4.359183700000001e-005           177.661832          0.114147525          -15.5702287
         0.111630278          -17.0167189 4.359183700000001e-005           177.661832          0.103616511   -36.24199320000001      2.21178122e-005           174.883815
     4.60797102e-005           176.243355          0.114147525          -15.5702287      2.21178122e-005           174.883815          0.110050421          -33.5543902

!
            70000000  0.07479516310000002          -53.2902723 6.409213490000001e-005           141.630698         0.0928995945   -34.00515059999999       5.3521697e-005           151.518246
6.409213490000001e-005           141.630698  0.08345038539999999          -49.8937951 5.142946459999999e-005           151.532781  0.09700665880000001          -32.3758423
        0.0928995945   -34.00515059999999 5.142946459999999e-005           151.532781  0.07735392570000001          -53.1120311      2.61252584e-005           138.061945
      5.3521697e-005           151.518246  0.09700665880000001          -32.3758423      2.61252584e-005           138.061945  0.08621536840000001   -49.70636989999999

!
            80000000         0.0371713504          -72.6284065      7.46364114e-005           115.258438           0.06377692   -49.80828830000001      6.12966023e-005           126.287018
     7.46364114e-005           115.258438         0.0482683923          -67.1456819 5.986418900000001e-005           124.766382         0.0695788582          -48.3187689
          0.06377692   -49.80828830000001 5.986418900000001e-005           124.766382         0.0401135513   -72.20915030000001      3.28553697e-005             102.4229
     6.12966023e-005           126.287018         0.0695788582          -48.3187689      3.28553697e-005             102.4229         0.0514821345   -66.90343059999999

!
            90000000 0.009297075009999999           112.587012      8.49533217e-005           88.5029128          0.027546967          -57.6054803      6.83462281e-005           100.579157
     8.49533217e-005           88.5029128        0.00474511227   -95.61860280000002      6.78587211e-005           97.4536414         0.0345881264   -59.20069149999999
         0.027546967          -57.6054803      6.78587211e-005           97.4536414 0.006248001750000001           122.569789      4.17988762e-005    68.78064070000001
     6.83462281e-005           100.579157         0.0345881264   -59.20069149999999      4.17988762e-005    68.78064070000001 0.008341130089999999   -90.15175760000001

!
           100000000         0.0585503149    79.18367739999999 9.374680500000002e-005           61.7315589         0.0170087274    53.58765560000001 7.355337490000001e-005           74.9192609
9.374680500000002e-005           61.7315589         0.0434199111           80.4288787      7.42612026e-005           70.1125991         0.0106960742    33.36028480000001
        0.0170087274    53.58765560000001      7.42612026e-005           70.1125991         0.0549070331            79.536019      5.18583087e-005           37.1911315
7.355337490000001e-005           74.9192609         0.0106960742    33.36028480000001      5.18583087e-005           37.1911315  0.03939726449999999    80.78525260000001

!
           110000000           0.10671562           59.9867144       0.000100073408           35.5637145  0.05446549729999999    57.37945910000001      7.63279187e-005    50.10860769999999
      0.000100073408           35.5637145  0.09093338920000001    62.04736979999999      7.83370287e-005    43.48521780000001         0.0462100571           58.9167577
 0.05446549729999999    57.37945910000001      7.83370287e-005    43.48521780000001          0.102783518           60.2032837 6.176404139999999e-005    7.697382030000003
     7.63279187e-005    50.10860769999999         0.0462100571           58.9167577 6.176404139999999e-005    7.697382030000003  0.08659006079999999           62.3015114

!
           120000000          0.148762241           41.9275626       0.000103799499           10.6192094          0.087809161           43.2543648      7.69703643e-005            26.922271
      0.000103799499           10.6192094          0.133255901    44.39920639999999       8.0129551e-005           18.2747905         0.0802681435           45.9467921
         0.087809161           43.2543648       8.0129551e-005           18.2747905          0.144584911           42.1228225 7.060190910000002e-005          -19.5577768
     7.69703643e-005            26.922271         0.0802681435           45.9467921 7.060190910000002e-005          -19.5577768          0.128653998           44.6498589

!
           130000000          0.181482787            24.529346       0.000105578978          -12.6770713           0.11296635           27.5249572      7.65304015e-005    5.838397980000001
      0.000105578978          -12.6770713          0.166992082           27.2548314 8.037173439999999e-005          -5.05916038          0.106828648    30.51830979999999
          0.11296635           27.5249572 8.037173439999999e-005          -5.05916038          0.177083529           24.7284861 7.811253720000002e-005   -44.48662360000001
     7.65304015e-005    5.838397980000001          0.106828648    30.51830979999999 7.811253720000002e-005   -44.48662360000001          0.162176215           27.5195475

!
           140000000          0.203266079    7.642505439999998       0.000106490636          -34.1640482          0.128513856             11.68418      7.63516325e-005          -13.1274011
      0.000106490636          -34.1640482          0.190276591           10.5604102 8.011115009999998e-005          -26.3830478          0.124169539            14.804036
         0.128513856             11.68418 8.011115009999998e-005          -26.3830478          0.198646261    7.859838049999999      8.46289621e-005   -67.15763939999999
     7.63516325e-005          -13.1274011          0.124169539            14.804036      8.46289621e-005   -67.15763939999999          0.185267143           10.8503616

!
           150000000          0.213604561   -8.894637319999999       0.000107700336   -53.92826280000001          0.134038428   -4.025879610000001      7.76446812e-005          -30.4647738
      0.000107700336   -53.92826280000001          0.202402611          -5.79641557      8.03779501e-005          -45.8810212          0.131689599  -0.8258390530000002
         0.134038428   -4.025879610000001      8.03779501e-005          -45.8810212          0.208747707   -8.644102330000001      9.08448284e-005          -87.8016159
     7.76446812e-005          -30.4647738          0.131689599  -0.8258390530000002      9.08448284e-005          -87.8016159          0.197197186          -5.46798188

!
           160000000          0.212575386          -25.2570187       0.000110296524   -72.28154910000001          0.129560698          -19.6219907      8.12176666e-005   -47.05363289999999
      0.000110296524   -72.28154910000001          0.203322219          -21.9649097      8.20165182e-005   -64.01566320000001          0.129306908   -16.35422910000001
         0.129560698          -19.6219907      8.20165182e-005   -64.01566320000001          0.207456106          -24.9521391      9.76204724e-005           -106.79293
     8.12176666e-005   -47.05363289999999          0.129306908   -16.35422910000001      9.76204724e-005           -106.79293          0.197903032          -21.5782728

!
           170000000          0.200608336          -41.5832089       0.000115190588          -89.7519738          0.115354143          -35.0866451      8.73300773e-005          -63.8737939
      0.000115190588          -89.7519738          0.193366735   -38.07533850000001      8.55918339e-005          -81.4601108          0.117215271          -31.7826838
         0.115354143          -35.0866451      8.55918339e-005          -81.4601108          0.195204548          -41.1897542       0.000105844076          -124.647646
     8.73300773e-005          -63.8737939          0.117215271          -31.7826838       0.000105844076          -124.647646          0.187711533          -37.5978461

!
           180000000          0.178611226   -57.90798730000001       0.000122929241          -107.016916  0.09216078480000001   -50.07776200000001      9.56386425e-005   -81.65954429999999
      0.000122929241          -107.016916          0.173299543          -54.1688018      9.12676835e-005          -98.9474374         0.0960136003          -46.8786601
 0.09216078480000001   -50.07776200000001      9.12676835e-005          -98.9474374          0.172919091           -57.364741       0.000116235239          -142.000299
     9.56386425e-005   -81.65954429999999         0.0960136003          -46.8786601       0.000116235239          -142.000299          0.167395204          -53.5412204

!
           190000000          0.148351827   -74.07372239999999       0.000133436124          -124.702805  0.06171439000000001   -63.04938020000001       0.000105256494          -100.687452
      0.000133436124          -124.702805          0.144641061          -70.1022191 9.869118110000001e-005          -117.026399         0.0671360785   -60.54976340000001
 0.06171439000000001   -63.04938020000001 9.869118110000001e-005          -117.026399          0.142403406          -73.2589224       0.000129033499          -159.478012
      0.000105256494          -100.687452         0.0671360785   -60.54976340000001       0.000129033499          -159.478012          0.138500615          -69.2044765

!
           200000000          0.112819504          -89.5934101        0.00014593989          -143.129317          0.027948858          -64.3642588       0.000114999695          -120.766601
       0.00014593989          -143.129317          0.110042815           -85.383664       0.000107065892          -135.845809         0.0336742008          -66.7716641
         0.027948858          -64.3642588       0.000107065892          -135.845809          0.106707267          -88.2291178       0.000143750434          -177.477676
      0.000114999695          -120.766601         0.0336742008          -66.7716641       0.000143750434          -177.477676          0.103732169   -83.93176149999999

!
           210000000         0.0761909556          -103.324683       0.000159343769          -162.208399         0.0182086758            21.227858       0.000123859101          -141.386898
      0.000159343769          -162.208399         0.0733778371          -98.7148546       0.000115552745          -155.137159         0.0136331731           7.12240079
        0.0182086758            21.227858       0.000115552745          -155.137159  0.07012975489999999          -100.639458       0.000159326737           163.989008
      0.000123859101          -141.386898         0.0136331731           7.12240079       0.000159326737           163.989008         0.0670928744   -95.85837480000002

!
           220000000         0.0432988583          -112.208433       0.000172900832           178.407184          0.047587815    34.97103440000001       0.000131514036          -161.962288
      0.000172900832           178.407184         0.0394881384          -105.799621       0.000123834978          -174.432884  0.04178617389999999           39.0075104
         0.047587815    34.97103440000001       0.000123834978          -174.432884          0.037920013           -105.35651       0.000174767365           145.229405
      0.000131514036          -161.962288  0.04178617389999999           39.0075104       0.000174767365           145.229405         0.0340032665   -97.78927299999999

!
           230000000         0.0194360302          -104.865269       0.000186690012           159.052489         0.0732712071           23.5483681        0.00013852453           177.910475
      0.000186690012           159.052489         0.0157795529   -82.96351060000001       0.000132422557             166.6122  0.06956739050000001           28.9188374
        0.0732712071           23.5483681       0.000132422557             166.6122         0.0176695176           -82.232254       0.000189822577           126.632741
       0.00013852453           177.910475  0.06956739050000001           28.9188374       0.000189822577           126.632741         0.0164076041          -54.9842885

!
           240000000         0.0114968375           -61.284819       0.000201540097           139.844916         0.0897483619    8.734981679999999       0.000146026884           158.279873
      0.000201540097           139.844916         0.0174392964          -25.0577109       0.000142428325            147.98769         0.0891435656           14.4983223
        0.0897483619    8.734981679999999       0.000142428325            147.98769         0.0173509782           -40.757612       0.000205210089           108.434543
      0.000146026884           158.279873         0.0891435656           14.4983223       0.000205210089           108.434543         0.0251046806          -17.7445218

!
           250000000         0.0106399783          -42.1235386       0.000218512578           120.635162         0.0952440869   -6.826605849999999       0.000155122516           138.832109
      0.000218512578           120.635162         0.0234763587          -19.5540411       0.000154960087           129.311697         0.0984522624         -0.859006222
        0.0952440869   -6.826605849999999       0.000154960087           129.311697         0.0184689479          -36.2175894        0.00022229695           90.5958277
      0.000155122516           138.832109         0.0984522624         -0.859006222        0.00022229695           90.5958277         0.0319280206          -19.7570848

!
           260000000        0.00152746631          -17.3567144        0.00023825241           101.095307         0.0892427187          -22.2415956       0.000166269802           119.052267
       0.00023825241           101.095307         0.0196603315          -23.8945714       0.000170468004           110.027505  0.09669769410000001          -16.2507968
        0.0892427187          -22.2415956       0.000170468004           110.027505 0.009563774359999999           -42.818995       0.000242462947    72.81370510000001
      0.000166269802           119.052267  0.09669769410000001          -16.2507968       0.000242462947    72.81370510000001         0.0282659636          -28.5401634

!
           270000000         0.0192251892           113.544392       0.000260412925           80.8808495         0.0723244114          -36.4478939       0.000178880859    98.47575120000001
      0.000260412925           80.8808495        0.00712961639           8.93309378       0.000188292845           89.6801327         0.0840324334   -30.96815370000001
        0.0723244114          -36.4478939       0.000188292845           89.6801327         0.0107664236           113.718316       0.000266338388           54.6463699
      0.000178880859    98.47575120000001         0.0840324334   -30.96815370000001       0.000266338388           54.6463699         0.0136727884          -29.2449742

!
           280000000         0.0497343618           100.297268 0.0002833294660000001           59.8027361         0.0466120739   -45.89264710000001        0.00019126243           76.9129487
0.0002833294660000001           59.8027361         0.0240519669           93.8380859       0.000206557317    68.12209780000001  0.06174980559999999          -43.2677796
        0.0466120739   -45.89264710000001       0.000206557317    68.12209780000001         0.0411202512           101.657873        0.00029312103           35.7192838
       0.00019126243           76.9129487  0.06174980559999999          -43.2677796        0.00029312103           35.7192838         0.0146864043           88.0276147

!
           290000000  0.08751815699999999    84.55097739999999       0.000304242758           37.9467091         0.0197054147          -24.5683729       0.000201067865           54.5606402
      0.000304242758           37.9467091  0.05828663249999999           86.9735745        0.00022256798    45.58377600000001         0.0334412265          -44.7987898
        0.0197054147          -24.5683729        0.00022256798    45.58377600000001         0.0788279593           85.7035839         0.0003204064           15.9265255
      0.000201067865           54.5606402         0.0334412265          -44.7987898         0.0003204064           15.9265255         0.0484449445           87.7553065

!
           300000000          0.128541743           67.9169354       0.000320285076           15.6822345         0.0316851405           44.7994041       0.000206289002           31.9682537
      0.000320285076           15.6822345         0.0979908941    72.86314969999999       0.000233804062           22.6127638         0.0194940064           17.1349079
        0.0316851405           44.7994041       0.000233804062           22.6127638          0.119848492           68.8961181        0.00034498808           -4.4932248
      0.000206289002           31.9682537         0.0194940064           17.1349079        0.00034498808           -4.4932248         0.0880547567           73.9513339

!
           310000000          0.168364161           51.0253266       0.000329834506   -6.455839690000001         0.0639023559           44.8933379       0.000206344688    9.871544930000002
      0.000329834506   -6.455839690000001          0.138642535    57.05482820000001        0.00023909684 -0.09116412440000001         0.0468171245    45.33681829999999
        0.0639023559           44.8933379        0.00023909684 -0.09116412440000001          0.159729375           51.8912207 0.0003644092989999999          -25.0606069
      0.000206344688    9.871544930000002         0.0468171245    45.33681829999999 0.0003644092989999999          -25.0606069          0.128731136           58.1112232

!
           320000000          0.203141658           34.2342324       0.000333279781          -27.9535438         0.0930919078           33.3318149       0.000202501804          -11.0466445
      0.000333279781          -27.9535438          0.176076863           40.7885163       0.000239197081          -21.8872012  0.07784172910000001           37.9660587
        0.0930919078           33.3318149       0.000239197081          -21.8872012           0.19459737           35.0329631       0.000378189266          -45.2670039
      0.000202501804          -11.0466445  0.07784172910000001           37.9660587       0.000378189266          -45.2670039          0.166279112           41.7932395

!
           330000000          0.230246933           17.7129601        0.00033266272          -48.4689811          0.115499195           19.5750013       0.000197331451          -30.3804098
       0.00033266272          -48.4689811          0.207102844             24.54199        0.00023634064          -42.3667527          0.103635529           25.3024744
         0.115499195           19.5750013        0.00023634064          -42.3667527          0.221787933           18.4810971       0.000387843533   -64.75870209999999
      0.000197331451          -30.3804098          0.103635529           25.3024744       0.000387843533   -64.75870209999999          0.197466303           25.5153501

!
           340000000          0.248266749             1.477662       0.000330682022          -67.8874139          0.129781976    5.340090500000001       0.000193687373          -48.1414575
      0.000330682022          -67.8874139          0.229768731    8.487714940000002       0.000233273514   -61.43580819999999          0.121926377           11.4190049
         0.129781976    5.340090500000001       0.000233273514   -61.43580819999999          0.239855342    2.248054910000001       0.000395961565   -83.41259270000001
      0.000193687373          -48.1414575          0.121926377           11.4190049       0.000395961565   -83.41259270000001          0.220295474    9.456873070000002

!
           350000000          0.256623087          -14.5623412       0.000329858727   -86.29811359999999          0.135509859   -8.952066839999999         0.0001938412   -64.77622630000001
      0.000329858727   -86.29811359999999          0.243140451   -7.375576959999999       0.000232421777   -79.31057730000001          0.131884544          -2.74692793
         0.135509859   -8.952066839999999       0.000232421777   -79.31057730000001          0.248201781          -13.7554938        0.00040521244          -101.316121
        0.0001938412   -64.77622630000001          0.131884544          -2.74692793        0.00040521244          -101.316121          0.233795572   -6.380079090000001

!
           360000000          0.255180883          -30.5540236       0.000332157223          -103.945453          0.132608058          -23.2162223       0.000199012148   -81.03017199999999
      0.000332157223          -103.945453           0.24690268           -23.147111       0.000235452831          -96.4507746          0.133286283          -16.9616438
         0.132608058          -23.2162223       0.000235452831          -96.4507746          0.246688234   -29.66981150000001       0.000417755035          -118.706918
      0.000199012148   -81.03017199999999          0.133286283          -16.9616438       0.000417755035          -118.706918          0.237629381          -22.0888669

!
           370000000          0.244057267   -46.65386389999999       0.000338858182          -121.183245          0.121163802   -37.38704780000001       0.000209229286          -97.6897357
      0.000338858182          -121.183245          0.241065876          -38.9665177       0.000243089032          -113.442504          0.126150803          -31.1664624
         0.121163802   -37.38704780000001       0.000243089032          -113.442504          0.235444606          -45.6373531       0.000434957701          -135.909354
      0.000209229286          -97.6897357          0.126150803          -31.1664624       0.000434957701          -135.909354          0.231802214          -37.7979341

!
           380000000          0.223694814          -62.9854344 0.0003503996230000001          -138.419801          0.101573273            -51.15597        0.00022340077          -115.328573
0.0003503996230000001          -138.419801          0.225905357           -54.966696       0.000255001142          -130.842931          0.110708097   -45.22795930000001
         0.101573273            -51.15597       0.000255001142          -130.842931          0.214942877   -61.75566379999999       0.000457160379          -153.269587
       0.00022340077          -115.328573          0.110708097   -45.22795930000001       0.000457160379          -153.269587          0.216600591          -53.6197467

!
           390000000          0.195160982          -79.6035145       0.000366130415          -156.025638         0.0749921677   -63.37676270000001       0.000239514863          -134.173206
      0.000366130415          -156.025638          0.202141164          -71.2339849       0.000269777819          -149.021679  0.08766394330000001          -58.6116274
        0.0749921677   -63.37676270000001       0.000269777819          -149.021679          0.186294212          -78.0312697 0.0004834001610000001          -171.075059