! Tyco Electronics Strada Whisper System
! NEXT_F89_G1112
!! 
!! SYSTEM DESCRIPTION: Daughtercard-Footprint-Connector-Footprint-Daughtercard
!! PCB DESCRIPTION: DC: 140mil, Megtron7N, upper layer route, 15mil stub, 6-6-6mil 14" traces
!! CONNECTOR DESCRIPTION: Next-Gen STRADA Whisper Direct-Plug Orthogonal Connector
!! MODEL DESCRIPTION: Tyco Electronics System 4-port S-parameter 
!! MODEL STATUS: Developmental
!! MODEL GEOMETRY: Channel Model
!! MODEL FREQUENCY RANGE: DC to 60 GHz in 10 MHz frequency steps
!! MODEL EDGE RATE LIMITATION: 8.3 ps (Using conservative 0.5/Fmax rule of thumb)
!! 
!! TIME-DOMAIN TRANSFORM CAUTIONS: 
!! 1.) Do not simulate transient edge rates faster than the number listed above.  Edge rates faster than this number 
!!     contain significant spectral content at frequencies above the model's highest frequency. 
!! 2.) Even when simulating edge rates that are slower than the number listed above, be aware that the best time 
!!     resolution possible with a direct iFFT is (1 / 2Fmax).  As a result, time resolution is typically not adequate 
!!     for most time-domain simulations unless tricks such as windowing are used to minimize leakage and aliasing. 
!! 3.) Because the model has a uniform frequency step, a direct iFFT will result in an impulse that that has a time 
!!     length given by either (1 / Fstep) or (1 / 2Fstep), depending on the transform being used.  Care has been taken 
!!     in selecting the frequency step to ensure a settled impulse response for the model.  Therefore, convolution with 
!!     the model's impulse response should present no issues.  However, if directly concatenating s-parameter models 
!!     in the frequency domain a user must either interpolate necessary interim frequencies or complete impulse response 
!!     zero-padding.  Impulse response zero-padding is more difficult, but more accurate. 
!! 
!! PORT DEFINITIONS: 
!! Port   1  ----->  RX Side	F8     G11     RX Side  <-----  Port   3
!! Port   2  ----->  RX Side	F9     G12     RX Side  <-----  Port   4
!! 
!!!!!!!!!!!!!!!!!!!!!!!!!!!!!!!!!!!!!!!!!!!!!!!!!!!!!!!!!!!!!!!!!!!!!!!!!!!!!!!!!!!!!!!!!!!!!!!!!!!!!!!!!!!!!!!!!!!!!!!!
! Touchstone data
! Created: 10-Dec-2018 by IdEM R2012 (8.0.5)
# Hz S MA R 50

!
                   0         0.0574742849                    0       1.0057028e-006                    0        0.00170201038                    0      5.82458585e-007                    0
      1.0057028e-006                    0         0.0543541525                    0      1.83465919e-006                    0        0.00137078406                    0
       0.00170201038                    0      1.83465919e-006                    0         0.0577228862                    0      1.16405781e-006                    0
     5.82458585e-007                    0        0.00137078406                    0      1.16405781e-006                    0         0.0545332685                    0

!
            10000000         0.0694620022           14.5548236      3.86014705e-006           56.2860701         0.0381053265           69.1095096      3.18887147e-006          -99.3749971
     3.86014705e-006           56.2860701  0.06734561679999999           16.8110253      3.79722211e-005           69.7453872          0.037830257    69.90732060000001
        0.0381053265           69.1095096      3.79722211e-005           69.7453872         0.0698680944           14.6884231 9.632355539999999e-006           68.0290387
     3.18887147e-006          -99.3749971          0.037830257    69.90732060000001 9.632355539999999e-006           68.0290387           0.06772224           16.9992533

!
            20000000         0.0906842928           14.4981402      7.49743177e-006    45.58924950000001  0.07178283520000001            52.246734      6.16263256e-006           -124.17726
     7.49743177e-006    45.58924950000001  0.09027158869999999            17.219334      7.63572983e-005           53.6385578  0.07144950949999999            53.138502
 0.07178283520000001            52.246734      7.63572983e-005           53.6385578         0.0914041241           14.6489878      1.99700622e-005           55.9977497
     6.16263256e-006           -124.17726  0.07144950949999999            53.138502      1.99700622e-005           55.9977497         0.0910209593           17.4223612

!
            30000000          0.108772828           5.94750808      1.12987287e-005           30.8508204  0.09778121289999998           34.8361739 8.910107090000001e-006          -145.386867
     1.12987287e-005           30.8508204          0.110231285           8.82886076       0.000115964036           36.5193283         0.0977440476           35.9858795
 0.09778121289999998           34.8361739       0.000115964036           36.5193283          0.109838674    6.089526199999999      3.18602403e-005    40.62949459999999
8.910107090000001e-006          -145.386867         0.0977440476           35.9858795      3.18602403e-005    40.62949459999999          0.111380718           9.01620048

!
            40000000          0.117989794          -6.42401121      1.55943739e-005           15.2223008          0.113846182           17.4752712      1.12896406e-005          -165.489297
     1.55943739e-005           15.2223008           0.12164737          -3.29485705       0.000157630424           18.9400539          0.114581332           18.9356721
         0.113846182           17.4752712       0.000157630424           18.9400539          0.119411839          -6.28873973       4.5876789e-005           23.4067246
     1.12896406e-005          -165.489297          0.114581332           18.9356721       4.5876789e-005           23.4067246          0.123206136          -3.11881853

!
            50000000           0.11586537          -20.7492961      2.08642443e-005          -1.55530765          0.118663081          0.198370535      1.31232999e-005            175.28149
     2.08642443e-005          -1.55530765          0.122186119          -17.2183123       0.000202130091          0.850657013          0.120728656           1.99892125
         0.118663081          0.198370535       0.000202130091          0.850657013          0.117654434          -20.6145958 6.243758149999999e-005    4.522958520000001
     1.31232999e-005            175.28149          0.120728656           1.99892125 6.243758149999999e-005    4.522958520000001          0.124167463          -17.0470592

!
            60000000           0.10144739          -36.3854264      2.74864901e-005          -20.3211262          0.111630278          -17.0167189      1.42252229e-005            157.59899
     2.74864901e-005          -20.3211262          0.110946493          -32.2313943       0.000249775532          -17.9027762          0.115609942          -14.8771573
         0.111630278          -17.0167189       0.000249775532          -17.9027762          0.103616511   -36.24199320000001 8.166572889999999e-005          -15.9978018
     1.42252229e-005            157.59899          0.115609942          -14.8771573 8.166572889999999e-005          -15.9978018          0.113367752          -32.0598933

!
            70000000  0.07479516310000002          -53.2902723      3.54613386e-005          -41.6034072         0.0928995945   -34.00515059999999      1.46172787e-005           143.195324
     3.54613386e-005          -41.6034072         0.0879116777   -48.07624859999999       0.000299877816   -37.45100990000001  0.09928045110000001          -31.6247304
        0.0928995945   -34.00515059999999       0.000299877816   -37.45100990000001  0.07735392570000001          -53.1120311       0.000103146023          -38.1190801
     1.46172787e-005           143.195324  0.09928045110000001          -31.6247304       0.000103146023          -38.1190801         0.0907878258          -47.9006182

!
            80000000         0.0371713504          -72.6284065      4.42130884e-005   -65.33293310000002           0.06377692   -49.80828830000001      1.50213139e-005           134.237474
     4.42130884e-005   -65.33293310000002         0.0540361688          -64.6110286       0.000350267525          -57.8062614         0.0727232786          -47.6835622
          0.06377692   -49.80828830000001       0.000350267525          -57.8062614         0.0401135513   -72.20915030000001       0.000125654702   -61.68845900000001
     1.50213139e-005           134.237474         0.0727232786          -47.6835622       0.000125654702   -61.68845900000001         0.0573701287          -64.4281388

!
            90000000 0.009297075009999999           112.587012      5.26009183e-005          -90.9027122          0.027546967          -57.6054803      1.70789024e-005           129.009864
     5.26009183e-005          -90.9027122         0.0116208499          -81.3174037 0.0003973749670000001          -78.7870255          0.038406948   -59.86645309999999
         0.027546967          -57.6054803 0.0003973749670000001          -78.7870255 0.006248001750000001           122.569789        0.00014712793          -86.3567333
     1.70789024e-005           129.009864          0.038406948   -59.86645309999999        0.00014712793          -86.3567333         0.0153945074          -81.2098519

!
           100000000         0.0585503149    79.18367739999999      5.92723514e-005          -117.339284         0.0170087274    53.58765560000001      2.18054151e-005           120.149436
     5.92723514e-005          -117.339284         0.0355287324           80.4107621       0.000437357258          -100.010959 0.008478914490000001           10.7666784
        0.0170087274    53.58765560000001       0.000437357258          -100.010959         0.0549070331            79.536019       0.000165175342          -111.567287
     2.18054151e-005           120.149436 0.008478914490000001           10.7666784       0.000165175342          -111.567287         0.0313569411           80.5369985

!
           110000000           0.10671562           59.9867144      6.32771475e-005          -143.520748  0.05446549729999999    57.37945910000001       2.8220642e-005           104.682492
     6.32771475e-005          -143.520748  0.08262111430000001           62.9566772       0.000467921231          -120.994509         0.0415898761           59.8942389
 0.05446549729999999    57.37945910000001       0.000467921231          -120.994509          0.102783518           60.2032837       0.000178042341           -136.65706
      2.8220642e-005           104.682492         0.0415898761           59.8942389       0.000178042341           -136.65706         0.0781077485           63.1352548

!
           120000000          0.148762241           41.9275626 6.452860879999999e-005          -168.414211          0.087809161           43.2543648      3.46899463e-005    85.11342930000001
6.452860879999999e-005          -168.414211          0.125011207           45.6328151       0.000489479884          -141.319271         0.0759698553            47.595091
         0.087809161           43.2543648       0.000489479884          -141.319271          0.144584911           42.1228225       0.000185340825          -161.028779
     3.46899463e-005    85.11342930000001         0.0759698553            47.595091       0.000185340825          -161.028779          0.120212455            45.833225

!
           130000000          0.181482787            24.529346      6.37761283e-005           168.737771           0.11296635           27.5249572      4.01772344e-005            64.177353
     6.37761283e-005           168.737771          0.159216425    28.66571020000001       0.000504707791          -160.760718          0.103222523            32.308603
          0.11296635           27.5249572       0.000504707791          -160.760718          0.177083529           24.7284861       0.000187974618           175.712935
     4.01772344e-005            64.177353          0.103222523            32.308603       0.000187974618           175.712935          0.154172556           28.8883962

!
           140000000          0.203266079    7.642505439999998      6.22231348e-005           148.308795          0.128513856             11.68418      4.44356786e-005           43.4700953
     6.22231348e-005           148.308795          0.183240234           12.0956223       0.000517104961          -179.312856          0.121472985            16.656592
         0.128513856             11.68418       0.000517104961          -179.312856          0.198646261    7.859838049999999       0.000187472281           153.731232
     4.44356786e-005           43.4700953          0.121472985            16.656592       0.000187472281           153.731232          0.177967944            12.346947

!
           150000000          0.213604561   -8.894637319999999 6.113002940000001e-005            130.20124          0.134038428   -4.025879610000001 4.776182969999999e-005           23.6866363
6.113002940000001e-005            130.20124          0.196265773          -4.15150368       0.000529757723           162.869292          0.130017271           1.07833789
         0.134038428   -4.025879610000001       0.000529757723           162.869292          0.208747707   -8.644102330000001        0.00018533779           133.011917
4.776182969999999e-005           23.6866363          0.130017271           1.07833789        0.00018533779           133.011917          0.190759283          -3.85993462

!
           160000000          0.212575386          -25.2570187      6.15270914e-005           113.768365          0.129560698          -19.6219907 5.068224639999999e-005           4.92681327
     6.15270914e-005           113.768365          0.198172699          -20.2055508       0.000544785223            145.55065          0.128713441   -14.38725670000001
         0.129560698          -19.6219907       0.000544785223            145.55065          0.207456106          -24.9521391       0.000182735844            113.44392
5.068224639999999e-005           4.92681327          0.128713441   -14.38725670000001       0.000182735844            113.44392           0.19241125          -19.8542781

!
           170000000          0.200608336          -41.5832089      6.39784998e-005    97.91759500000001          0.115354143          -35.0866451 5.369710879999999e-005          -13.0996449
     6.39784998e-005    97.91759500000001           0.18923776          -36.1876245 0.0005632753990000001           128.483908          0.117713013          -29.7378927
         0.115354143          -35.0866451 0.0005632753990000001           128.483908          0.195204548          -41.1897542       0.000180463438           94.8862589
5.369710879999999e-005          -13.0996449          0.117713013          -29.7378927       0.000180463438           94.8862589          0.183197183          -35.7431057

!
           180000000          0.178611226   -57.90798730000001      6.84230997e-005           81.5442376  0.09216078480000001   -50.07776200000001 5.709039950000001e-005          -30.8845268
     6.84230997e-005           81.5442376          0.170152797   -52.13591899999999       0.000585416565           111.458001         0.0975524555   -44.75874460000001
 0.09216078480000001   -50.07776200000001       0.000585416565           111.458001          0.172919091           -57.364741       0.000179065986           77.2113102
5.709039950000001e-005          -30.8845268         0.0975524555   -44.75874460000001       0.000179065986           77.2113102          0.163820334          -51.5361276

!
           190000000          0.148351827   -74.07372239999999      7.42285266e-005           64.0303212  0.06171439000000001   -63.04938020000001      6.08170442e-005          -48.8956033
     7.42285266e-005           64.0303212          0.142320549          -67.9043203 0.0006107298059999999    94.33086910000002         0.0695499119   -58.44903479999999
 0.06171439000000001   -63.04938020000001 0.0006107298059999999    94.33086910000002          0.142403406          -73.2589224       0.000179015581           60.3215742
     6.08170442e-005          -48.8956033         0.0695499119   -58.44903479999999       0.000179015581           60.3215742          0.135713864           -67.021444

!
           200000000          0.112819504          -89.5934101      8.04898807e-005    45.39801920000001          0.027948858          -64.3642588      6.45157796e-005   -67.36883709999999
     8.04898807e-005    45.39801920000001          0.108231975   -82.97561360000002       0.000638451222           77.0422045           0.03656966          -65.5942673
         0.027948858          -64.3642588       0.000638451222           77.0422045          0.106707267          -88.2291178       0.000180906495           44.1280389
     6.45157796e-005   -67.36883709999999           0.03656966          -65.5942673       0.000180906495           44.1280389          0.101429922          -81.5000524

!
           210000000         0.0761909556          -103.324683      8.64459724e-005           26.1093813         0.0182086758            21.227858      6.76734024e-005   -86.22297279999999
     8.64459724e-005           26.1093813  0.07162043499999998   -95.90258610000001       0.000668034469           59.5952163         0.0132083478   -3.468053809999999
        0.0182086758            21.227858       0.000668034469           59.5952163  0.07012975489999999          -100.639458       0.000185582455           28.4825664
     6.76734024e-005   -86.22297279999999         0.0132083478   -3.468053809999999       0.000185582455           28.4825664         0.0648571891           -92.864274

!
           220000000         0.0432988583          -112.208433       9.1833532e-005    6.752235499999999          0.047587815    34.97103440000001      6.98667354e-005          -105.125019
      9.1833532e-005    6.752235499999999         0.0374051044          -101.372973       0.000699525331           42.0088957         0.0395363463           39.6394046
         0.047587815    34.97103440000001       0.000699525331           42.0088957          0.037920013           -105.35651       0.000194079483           13.1008141
     6.98667354e-005          -105.125019         0.0395363463           39.6394046       0.000194079483           13.1008141  0.03168810169999999   -92.07644550000001

!
           230000000         0.0194360302          -104.865269      9.70252957e-005          -12.2354734         0.0732712071           23.5483681 7.094327670000001e-005          -123.625638
     9.70252957e-005          -12.2354734         0.0151319819   -66.94074620000001       0.000733522255           24.2662404  0.06819260720000001           30.7205457
        0.0732712071           23.5483681       0.000733522255           24.2662404         0.0176695176           -82.232254       0.000207378764          -2.44665141
7.094327670000001e-005          -123.625638  0.06819260720000001           30.7205457       0.000207378764          -2.44665141         0.0176133495          -38.9134157

!
           240000000         0.0114968375           -61.284819       0.000102898553           -30.757803         0.0897483619    8.734981679999999 7.108004240000001e-005           -141.26225
      0.000102898553           -30.757803         0.0222624759          -15.2689359 0.0007707017600000001    6.288692589999999  0.08923290590000001           16.6167909
        0.0897483619    8.734981679999999 0.0007707017600000001    6.288692589999999         0.0173509782           -40.757612       0.000226123165   -18.64647920000001
7.108004240000001e-005           -141.26225  0.08923290590000001           16.6167909       0.000226123165   -18.64647920000001         0.0305710203          -10.5656074

!
           250000000         0.0106399783          -42.1235386       0.000110477392          -49.1382477         0.0952440869   -6.826605849999999      7.08040235e-005           -157.61668
      0.000110477392          -49.1382477         0.0309675019          -14.9910561       0.000811127188          -12.0533718          0.100395094           1.36258889
        0.0952440869   -6.826605849999999       0.000811127188          -12.0533718         0.0184689479          -36.2175894       0.000250409736   -35.92586299999999
     7.08040235e-005           -157.61668          0.100395094           1.36258889       0.000250409736   -35.92586299999999  0.03985099949999999          -15.3682051

!
           260000000        0.00152746631          -17.3567144       0.000120421075   -68.01962260000001         0.0892427187          -22.2415956 7.106381410000001e-005          -172.452843
      0.000120421075   -68.01962260000001         0.0295606686          -23.0297953         0.0008535542   -30.90236060000001          0.100739742           -14.088184
        0.0892427187          -22.2415956         0.0008535542   -30.90236060000001 0.009563774359999999           -42.818995       0.000279592002   -54.57901240000001
7.106381410000001e-005          -172.452843          0.100739742           -14.088184       0.000279592002   -54.57901240000001         0.0386194598          -25.9021159

!
           270000000         0.0192251892           113.544392        0.00013249463          -88.0702283         0.0723244114          -36.4478939      7.32041932e-005           173.903743
       0.00013249463          -88.0702283         0.0173907399          -24.8211796       0.000894921038            -50.35737  0.09021936969999998          -29.1752431
        0.0723244114          -36.4478939       0.000894921038            -50.35737         0.0107664236           113.718316       0.000312010283   -74.73526990000001
     7.32041932e-005           173.903743  0.09021936969999998          -29.1752431       0.000312010283   -74.73526990000001          0.026166662          -35.0287561

!
           280000000         0.0497343618           100.297268       0.000145284693          -109.642482         0.0466120739   -45.89264710000001      7.84063444e-005            160.20884
      0.000145284693          -109.642482         0.0113180585           70.7037394 0.0009303845370000001          -70.4101184         0.0697519546          -42.7901238
        0.0466120739   -45.89264710000001 0.0009303845370000001          -70.4101184         0.0411202512           101.657873 0.0003447874550000001   -96.33501410000001
     7.84063444e-005            160.20884         0.0697519546          -42.7901238 0.0003447874550000001   -96.33501410000001        0.00677653896           10.4037442

!
           290000000  0.08751815699999999    84.55097739999999       0.000156455695          -132.592254         0.0197054147          -24.5683729 8.659500350000001e-005           144.842857
      0.000156455695          -132.592254         0.0418714692    87.17077399999999       0.000954413268          -90.8951802         0.0418328991   -50.44717730000001
        0.0197054147          -24.5683729       0.000954413268          -90.8951802         0.0788279593           85.7035839       0.000374077464          -119.110022
8.659500350000001e-005           144.842857         0.0418328991   -50.44717730000001       0.000374077464          -119.110022         0.0316750324    86.93290709999999

!
           300000000          0.128541743           67.9169354       0.000163628747          -156.326688         0.0316851405           44.7994041 9.599337829999998e-005           127.069088
      0.000163628747          -156.326688         0.0803805216           75.6695162 0.0009629852899999999          -111.492045         0.0167765208          -13.9756069
        0.0316851405           44.7994041 0.0009629852899999999          -111.492045          0.119848492           68.8961181       0.000396073476          -142.602997
9.599337829999998e-005           127.069088         0.0167765208          -13.9756069       0.000396073476          -142.602997         0.0700563614    76.73631810000001

!
           310000000          0.168364161           51.0253266       0.000165493404           179.993016         0.0639023559           44.8933379       0.000104118824            107.41585
      0.000165493404           179.993016          0.121051626           60.6471628 0.0009557560449999999          -131.803386         0.0361582019    45.39082199999999
        0.0639023559           44.8933379 0.0009557560449999999          -131.803386          0.159729375           51.8912207       0.000408441109          -166.256543
      0.000104118824            107.41585         0.0361582019    45.39082199999999       0.000408441109          -166.256543           0.11073966           61.7383065

!
           320000000          0.203141658           34.2342324        0.00016241414           157.205252         0.0930919078           33.3318149       0.000109245899    87.03726260000001
       0.00016241414           157.205252          0.159560782           44.6986348       0.000936488459          -151.481834         0.0679474256           41.5993746
        0.0930919078           33.3318149       0.000936488459          -151.481834           0.19459737           35.0329631       0.000411191717           170.450981
      0.000109245899    87.03726260000001         0.0679474256           41.5993746       0.000411191717           170.450981          0.149341464           45.7260769

!
           330000000          0.230246933           17.7129601       0.000156146796           135.951429          0.115499195           19.5750013       0.000111126566           67.0517196
      0.000156146796           135.951429           0.19243755           28.5953668       0.000911343826          -170.334662         0.0955177395           29.4997678
         0.115499195           19.5750013       0.000911343826          -170.334662          0.221787933           18.4810971       0.000406341158           147.891392
      0.000111126566           67.0517196         0.0955177395           29.4997678       0.000406341158           147.891392            0.1823545    29.57523729999999

!
           340000000          0.248266749             1.477662       0.000149040332           116.564233          0.129781976    5.340090500000001        0.00011078021    48.22569650000001
      0.000149040332           116.564233          0.217417583           12.6231357       0.000886453495           171.645064          0.115969187           15.7234507
         0.129781976    5.340090500000001       0.000886453495           171.645064          0.239855342    2.248054910000001        0.00039676483           126.246133
       0.00011078021    48.22569650000001          0.115969187           15.7234507        0.00039676483           126.246133          0.207471349           13.5853893

!
           350000000          0.256623087          -14.5623412       0.000143330892           99.0095065          0.135509859   -8.952066839999999       0.000109852652           30.8671946
      0.000143330892           99.0095065          0.233330216          -3.15995579       0.000866322082           154.314892          0.128219105           1.58268173
         0.135509859   -8.952066839999999       0.000866322082           154.314892          0.248201781          -13.7554938 0.0003851353409999999           105.534167
      0.000109852652           30.8671946          0.128219105           1.58268173 0.0003851353409999999           105.534167          0.223484339          -2.18193216

!
           360000000          0.255180883          -30.5540236       0.000140738681           82.8529212          0.132608058          -23.2162223       0.000109990937    14.79041310000001
      0.000140738681           82.8529212          0.239725793          -18.8194692       0.000853410512           137.447791          0.131933024          -12.5883952
         0.132608058          -23.2162223       0.000853410512           137.447791          0.246688234   -29.66981150000001       0.000373397773    85.66983860000001
      0.000109990937    14.79041310000001          0.131933024          -12.5883952       0.000373397773    85.66983860000001          0.229921183           -17.787208

!
           370000000          0.244057267   -46.65386389999999        0.00014222378    67.30970960000001          0.121163802   -37.38704780000001       0.000112359632         -0.633093013
       0.00014222378    67.30970960000001          0.236544643            -34.47708 0.0008483962860000001    120.7939060000001          0.127092741          -26.7011872
         0.121163802   -37.38704780000001 0.0008483962860000001    120.7939060000001          0.235444606          -45.6373531       0.000362699942           66.5198039
      0.000112359632         -0.633093013          0.127092741          -26.7011872       0.000362699942           66.5198039          0.226717011          -33.3416825

!
           380000000          0.223694814          -62.9854344       0.000147797552           51.4734072          0.101573273            -51.15597       0.000117309873          -16.2429225
      0.000147797552           51.4734072          0.223992129   -50.25803590000001 0.0008506022860000001           104.129291          0.113887131          -40.6318871
         0.101573273            -51.15597 0.0008506022860000001           104.129291          0.214942877   -61.75566379999999       0.000353541437           47.9498167
      0.000117309873          -16.2429225          0.113887131          -40.6318871       0.000353541437           47.9498167          0.214089995           -48.950847

!
           390000000          0.195160982          -79.6035145       0.000156497657           34.6613218         0.0749921677   -63.37676270000001       0.000124284522          -32.7278983
      0.000156497657           34.6613218           0.20265471          -66.2462531       0.000858433248    87.29251240000001  0.09290530230000001          -53.9216424