! Tyco Electronics Strada Whisper System
! THRU_G1112
!! 
!! SYSTEM DESCRIPTION: Daughtercard-Footprint-Connector-Footprint-Daughtercard
!! PCB DESCRIPTION: DC: 140mil, Megtron7N, upper layer route, 15mil stub, 6-6-6mil 4" traces
!! CONNECTOR DESCRIPTION: Next-Gen STRADA Whisper Direct-Plug Orthogonal Connector
!! MODEL DESCRIPTION: Tyco Electronics System 4-port S-parameter 
!! MODEL STATUS: Developmental
!! MODEL GEOMETRY: Channel Model
!! MODEL FREQUENCY RANGE: DC to 60 GHz in 10 MHz frequency steps
!! MODEL EDGE RATE LIMITATION: 8.3 ps (Using conservative 0.5/Fmax rule of thumb)
!! 
!! TIME-DOMAIN TRANSFORM CAUTIONS: 
!! 1.) Do not simulate transient edge rates faster than the number listed above.  Edge rates faster than this number 
!!     contain significant spectral content at frequencies above the model's highest frequency. 
!! 2.) Even when simulating edge rates that are slower than the number listed above, be aware that the best time 
!!     resolution possible with a direct iFFT is (1 / 2Fmax).  As a result, time resolution is typically not adequate 
!!     for most time-domain simulations unless tricks such as windowing are used to minimize leakage and aliasing. 
!! 3.) Because the model has a uniform frequency step, a direct iFFT will result in an impulse that that has a time 
!!     length given by either (1 / Fstep) or (1 / 2Fstep), depending on the transform being used.  Care has been taken 
!!     in selecting the frequency step to ensure a settled impulse response for the model.  Therefore, convolution with 
!!     the model's impulse response should present no issues.  However, if directly concatenating s-parameter models 
!!     in the frequency domain a user must either interpolate necessary interim frequencies or complete impulse response 
!!     zero-padding.  Impulse response zero-padding is more difficult, but more accurate. 
!! 
!! PORT DEFINITIONS: 
!! Port   1  ----->  TX Side      G11     RX Side  <-----  Port   2
!! Port   3  ----->  TX Side      G12     RX Side  <-----  Port   4
!! 
!!!!!!!!!!!!!!!!!!!!!!!!!!!!!!!!!!!!!!!!!!!!!!!!!!!!!!!!!!!!!!!!!!!!!!!!!!!!!!!!!!!!!!!!!!!!!!!!!!!!!!!!!!!!!!!!!!!!!!!!
! Touchstone data
! Created: 10-Dec-2018 by IdEM R2012 (8.0.5)
# Hz S MA R 50

!
                   0         0.0279146007                    0          0.970285009                    0        0.00179932528                    0        0.00143822591                  180
         0.970285009                    0         0.0276104757                    0        0.00145960209                  180        0.00199318505                    0
       0.00179932528                    0        0.00145960209                  180         0.0281770468                    0          0.970086644                    0
       0.00143822591                  180        0.00199318505                    0          0.970086644                    0         0.0277289835                    0

!
            10000000          0.030181518           12.8789761          0.969473415          -7.01000308         0.0138943846           75.5837224         0.0017326575          -160.003555
         0.969473415          -7.01000308         0.0299547763           13.2506347         0.0017360048          -161.371618         0.0140282695           74.7986993
        0.0138943846           75.5837224         0.0017360048          -161.371618         0.0305618113           13.3732249          0.969272045          -7.01282126
        0.0017326575          -160.003555         0.0140282695           74.7986993          0.969272045          -7.01282126         0.0301808869           13.7721879

!
            20000000         0.0350988025            21.252345          0.968441409          -14.0063427         0.0273724407           72.3302113        0.00239787526          -155.248481
         0.968441409          -14.0063427         0.0350516589           21.7291351        0.00237073638          -156.918599         0.0276016195           71.8419256
        0.0273724407           72.3302113        0.00237073638          -156.918599         0.0357651214           21.9770695           0.96823079          -14.0118555
       0.00239787526          -155.248481         0.0276016195           71.8419256           0.96823079          -14.0118555         0.0355337164           22.5038578

!
            30000000         0.0414082147            24.985279   0.9671795170000002          -20.9903858         0.0404471367           66.6467543        0.00316309667          -159.896886
  0.9671795170000002          -20.9903858         0.0415738578            25.373913         0.0031095367          -161.650434         0.0407786198            66.218045
        0.0404471367           66.6467543         0.0031095367          -161.650434           0.04243229            25.746934          0.966954055          -20.9983717
       0.00316309667          -159.896886         0.0407786198            66.218045          0.966954055          -20.9983717         0.0423685711           26.2151688

!
            40000000  0.04812421570000001           25.3835754   0.9657200279999999          -27.9603486          0.052895306           60.3712229        0.00391615881          -168.832283
  0.9657200279999999          -27.9603486         0.0485062709           25.6038427        0.00384259361          -170.702252         0.0533294049    59.93897549999999
         0.052895306           60.3712229        0.00384259361          -170.702252         0.0495285072           26.1056193          0.965475069           -27.970496
       0.00391615881          -168.832283         0.0533294049    59.93897549999999          0.965475069           -27.970496  0.04962641250000001           26.4442384

!
            50000000         0.0546073046           23.6120551   0.9641141150000001   -34.91463099999999         0.0645318844           53.8778973 0.004607119989999999          -179.892114
  0.9641141150000001   -34.91463099999999         0.0552025724           23.6356756        0.00452067121           178.068115  0.06506723590000001    53.41424910000001
        0.0645318844           53.8778973        0.00452067121           178.068115  0.05639619790000001           24.2746767          0.963846204          -34.9265498
0.004607119989999999          -179.892114  0.06506723590000001    53.41424910000001          0.963846204          -34.9265498         0.0566459511           24.4631394

!
            60000000         0.0604404556           20.4369998   0.9624231210000001          -41.8523678         0.0751937741           47.2929499 0.005207127720000001           167.859998
  0.9624231210000001          -41.8523678         0.0612460397           20.2510204        0.00511569276           165.604613  0.07582827609999999    46.78111950000001
        0.0751937741           47.2929499        0.00511569276           165.604613         0.0626123213            21.040385          0.962130211          -41.8656034
0.005207127720000001           167.859998  0.07582827609999999    46.78111950000001          0.962130211          -41.8656034         0.0630058273           21.0729922

!
            70000000         0.0653367797           16.3311571          0.960712308   -48.77362729999999         0.0847384068           40.6701971 0.005696333300000001           154.866703
         0.960712308   -48.77362729999999         0.0663517303           15.9232396        0.00560865247           152.356061         0.0854695515           40.0973511
        0.0847384068           40.6701971        0.00560865247           152.356061  0.06788814359999999           16.8811741   0.9603939190000002   -48.78767689999999
0.005696333300000001           154.866703         0.0854695515           40.0973511   0.9603939190000002   -48.78767689999999         0.0684197069           16.7536869

!
            80000000  0.06908937950000001           11.5859898          0.959045554   -55.67945990000001         0.0930430557    34.03529649999999        0.00605988844           141.347273
         0.959045554   -55.67945990000001  0.07031492659999999           10.9384575         0.0059855428           138.543903  0.09386809390000001           33.3896736
        0.0930430557    34.03529649999999         0.0059855428           138.543903         0.0720164018           12.0893145          0.958702878          -55.6937893
       0.00605988844           141.347273  0.09386809390000001           33.3896736          0.958702878          -55.6937893  0.07268247430000001           11.7940999

!
            90000000  0.07154479060000001    6.383330970000001          0.957480825          -62.5718541          0.100003665           27.4007196 0.006286376609999999           127.404155
         0.957480825          -62.5718541         0.0729843739           5.46983768        0.00623576998            124.26933          0.100919687           26.6701158
         0.100003665           27.4007196        0.00623576998            124.26933  0.07484381649999999    6.845983260000001           0.95711678          -62.5859151
0.006286376609999999           127.404155          0.100919687           26.6701158           0.95711678          -62.5859151         0.0756427207           6.36977263

!
           100000000         0.0725880325          0.836804716          0.956066415   -69.45362930000002          0.105533299           20.7720467        0.00636712764           113.066232
         0.956066415   -69.45362930000002         0.0742474829          -0.38088586        0.00635150105           109.557171          0.106537254            19.942761
         0.105533299           20.7720467        0.00635150105           109.557171         0.0762557831           1.26389885          0.955685671   -69.46687710000001
       0.00636712764           113.066232          0.106537254            19.942761          0.955685671   -69.46687710000001         0.0771876224          0.585948505

!
           110000000         0.0721335142   -4.984828989999999          0.954837962          -76.3282849          0.109560557           14.1511906        0.00629597967    98.30252059999999
         0.954837962          -76.3282849         0.0740215565   -6.561324170000001 0.006327505300000001           94.3702345          0.110649202           13.2070661
         0.109560557           14.1511906 0.006327505300000001           94.3702345         0.0761671073          -4.58884073          0.954446924          -76.3401957
       0.00629597967    98.30252059999999          0.110649202           13.2070661          0.954446924          -76.3401957         0.0772339241          -5.49919904

!
           120000000  0.07011924880000001          -11.0451208          0.953816172          -83.1998191          0.112028307    7.538428599999999        0.00606943601           83.0158378
         0.953816172          -83.1998191          0.072248532          -13.0585376 0.006161449349999999           78.6044924          0.113198096           6.45978186
         0.112028307    7.538428599999999 0.006161449349999999           78.6044924          0.074516113          -10.6758451          0.953422939           -83.209907
       0.00606943601           83.0158378          0.113198096           6.45978186          0.953422939           -83.209907  0.07572237110000001          -11.8630938

!
           130000000         0.0665033142          -17.3348112          0.953005183          -90.0725257          0.112893054   0.9339891379999998        0.00568740617    67.01281830000001
         0.953005183          -90.0725257          0.068892366          -19.8988639        0.00585485676    62.06399320000001          0.114139935         -0.303747487
         0.112893054   0.9339891379999998        0.00585485676    62.06399320000001  0.07126101980000001            -16.98671          0.952619482          -90.0803592
       0.00568740617    67.01281830000001          0.114139935         -0.303747487          0.952619482          -90.0803592  0.07261458609999999          -18.5157027

!
           140000000         0.0612621941          -23.8740398          0.952391531   -96.95077259999999          0.112125149          -5.66043423        0.00515511397           49.9304417
         0.952391531   -96.95077259999999         0.0639391597          -27.1596525        0.00541531628           44.4038591          0.113444281   -7.088577009999999
         0.112125149          -5.66043423        0.00541531628           44.4038591         0.0663782025          -23.5377737          0.952024618          -96.9559914
       0.00515511397           49.9304417          0.113444281   -7.088577009999999          0.952024618          -96.9559914         0.0678922183           -25.505323

!
           150000000         0.0543910436          -30.7266001          0.951943731          -103.838765          0.109709975          -12.2399742        0.00448782517           31.0634302
         0.951943731          -103.838765         0.0574012339          -35.0031818        0.00486137775           25.0140549          0.111095322          -13.8992862
         0.109709975          -12.2399742        0.00486137775           25.0140549         0.0598623378           -30.382325   0.9516082550000001          -103.841095
       0.00448782517           31.0634302          0.111095322          -13.8992862   0.9516082550000001          -103.841095         0.0615588903          -32.9389448

!
           160000000         0.0459065347          -38.0442147   0.9516125449999999          -110.740293          0.105650118          -18.7943727        0.00372351675           8.94818151
  0.9516125449999999          -110.740293         0.0493291332          -43.7651659        0.00423371347           2.80034285          0.107093891          -20.7391471
         0.105650118          -18.7943727        0.00423371347           2.80034285         0.0517289192          -37.6418583          0.951322373          -110.739564
       0.00372351675           8.94818151          0.107093891          -20.7391471          0.951322373          -110.739564         0.0536468309   -41.03591170000001

!
           170000000         0.0358551937   -46.21239740000001          0.951332111          -117.658473         0.0999684354            -25.30474        0.00296014512          -19.5428499
         0.951332111          -117.658473          0.039845628   -54.20869620000001        0.00362053224          -24.0971329          0.101460298          -27.6092613
        0.0999684354            -25.30474        0.00362053224          -24.0971329         0.0420211217          -45.6002457          0.951102091          -117.654631
       0.00296014512          -19.5428499          0.101460298          -27.6092613          0.951102091          -117.654631  0.04423464740000001          -50.2769533

!
           180000000         0.0243438148          -56.4847198           0.95102211          -124.595485  0.09271184120000001          -31.7382758        0.00245299782   -59.29402230000001
          0.95102211          -124.595485         0.0292642032          -68.4039363         0.0032031154          -57.8049224  0.09423772050000001          -34.5075662
 0.09271184120000001          -31.7382758         0.0032031154          -57.8049224         0.0308304718   -55.04902100000001          0.950867773          -124.588607
       0.00245299782   -59.29402230000001  0.09423772050000001          -34.5075662          0.950867773          -124.588607         0.0335030994   -61.89607850000001

!
           190000000         0.0117691508          -76.0334735          0.950591175          -131.552331         0.0839555749          -38.0387156        0.00263377532          -106.577758
         0.950591175          -131.552331         0.0186758441          -93.5641945        0.00325368104          -96.8065933         0.0854957428          -41.4275075
        0.0839555749          -38.0387156        0.00325368104          -96.8065933         0.0183998687   -69.18633180000001           0.95052837          -131.542631
       0.00263377532          -106.577758         0.0854957428          -41.4275075           0.95052837          -131.542631         0.0219840988   -80.02565730000001

!
           200000000        0.00618385085           173.958989          0.949941634          -138.528625  0.07380787110000001          -44.1070516        0.00359060409          -145.125003
         0.949941634          -138.528625         0.0133985135          -150.198368        0.00392094884          -133.396251         0.0753334967          -48.3558784
 0.07380787110000001          -44.1070516        0.00392094884          -133.396251 0.006652534550000001          -118.044586   0.9499860970000001          -138.516467
       0.00359060409          -145.125003         0.0753334967          -48.3558784   0.9499860970000001          -138.516467         0.0123854208          -123.268498

!
           210000000         0.0201200487           129.102379   0.9489755520000001          -145.522456         0.0624156511           -49.757559         0.0050237993          -172.926895
  0.9489755520000001          -145.522456         0.0214903901            156.80383        0.00509081504          -163.076451         0.0638817859          -55.2684119
        0.0624156511           -49.757559        0.00509081504          -163.076451          0.013461537           141.187333          0.949142414          -145.508353
        0.0050237993          -172.926895         0.0638817859          -55.2684119          0.949142414          -145.508353         0.0156954971           164.923596

!
           220000000         0.0366223475           115.913713          0.947601744          -152.530349  0.04997466390000001          -54.6011307 0.006724442190000001           165.135255
         0.947601744          -152.530349         0.0360488078           133.295972 0.006590180650000001           172.827885  0.05130357910000001          -62.1184986
 0.04997466390000001          -54.6011307 0.006590180650000001           172.827885         0.0292281239           120.322365   0.9479050150000001          -152.514961
0.006724442190000001           165.135255  0.05130357910000001          -62.1184986   0.9479050150000001          -152.514961         0.0294490116           134.001413

!
           230000000         0.0541444688           106.572385          0.945743227          -159.547342         0.0367600802          -57.6646028        0.00859430771           146.168415
         0.945743227          -159.547342         0.0527090574           119.341257 0.008304241360000001           152.169647         0.0377924917            -68.80001
        0.0367600802          -57.6646028 0.008304241360000001           152.169647  0.04637884530000001           109.206809          0.946195273          -159.531468
       0.00859430771           146.168415         0.0377924917            -68.80001          0.946195273          -159.531468         0.0458704285           118.656466

!
           240000000         0.0723421918    98.37962600000002          0.943344282          -166.567203         0.0232725988          -55.6926534         0.0105780219           128.829053
         0.943344282          -166.567203         0.0704084581           108.680591         0.0101630084           133.573459         0.0235699252   -74.96971390000002
        0.0232725988          -55.6926534         0.0101630084           133.573459  0.06429043339999999           100.306569          0.943955341          -166.551766
        0.0105780219           128.829053         0.0235699252   -74.96971390000002          0.943955341          -166.551766         0.0633998021           107.674259

!
           250000000         0.0909404062           90.6767929          0.940376223          -173.582772         0.0114739472   -31.50463530000001         0.0126355164           112.469299
         0.940376223          -173.582772         0.0886737839           99.4775722         0.0121181324            116.27146 0.008894990429999999          -78.0826416
        0.0114739472   -31.50463530000001         0.0121181324            116.27146  0.08264662740000001    92.24069230000001           0.94115401          -173.568802
        0.0126355164           112.469299 0.008894990429999999          -78.0826416           0.94115401          -173.568802  0.08151020069999999           98.4046063

!
           260000000          0.109671548    83.23363569999999   0.9368410180000001           179.413589         0.0125805647    38.08876229999999         0.0147329604           96.7539453
  0.9368410180000001           179.413589          0.107164294    91.04550329999999         0.0141313898    99.83422160000001 0.006175288619999999           79.5330402
        0.0125805647    38.08876229999999         0.0141313898    99.83422160000001          0.101168675           84.5827743          0.937790441           179.424986
        0.0147329604           96.7539453 0.006175288619999999           79.5330402          0.937790441           179.424986          0.099854295           89.9777746

!
           270000000          0.128272898            75.954827          0.932772172           172.429496  0.02508552840000001    57.50886700000001         0.0168399778           81.4986344
         0.932772172           172.429496          0.125584382    83.08034309999999         0.0161700331           84.0136253          0.021042341           79.0299267
 0.02508552840000001    57.50886700000001         0.0161700331           84.0136253          0.119589334    77.16518820000002          0.933895195           172.437159
        0.0168399778           81.4986344          0.021042341           79.0299267          0.933895195           172.437159          0.118136381           82.0375918

!
           280000000          0.146493122            68.797883          0.928232714           165.472038         0.0390358916           58.7151897         0.0189290644           66.5969424
         0.928232714           165.472038           0.14366573           75.4318608         0.0182051718    68.66093290000001         0.0357002961           73.2608647
        0.0390358916           58.7151897         0.0182051718    68.66093290000001           0.13765445           69.9133339   0.9295283760000001           165.474782
        0.0189290644           66.5969424         0.0357002961           73.2608647   0.9295283760000001           165.474782          0.136088514    74.41686350000001

!
           290000000          0.164100046    61.74360660000001   0.9233105920000001           158.547327         0.0528714262           55.6206102          0.020975748    51.98482379999999
  0.9233105920000001           158.547327          0.161166407    68.02008290000001         0.0202113823           53.6836404         0.0498902927    66.93602730000001
        0.0528714262           55.6206102         0.0202113823           53.6836404          0.155129308           62.7918394           0.92477517           158.543975
         0.020975748    51.98482379999999         0.0498902927    66.93602730000001           0.92477517           158.543975           0.15346857           67.0298213

!
           300000000          0.180887213           54.7834552   0.9181122120000002           151.660158         0.0661619435           50.9980987         0.0229588997           37.6219814
  0.9181122120000002           151.660158           0.17787383           60.7998618         0.0221667334           39.0218784  0.06341579610000001    60.50710779999999
        0.0661619435           50.9980987         0.0221667334           39.0218784          0.171804754           55.7832598   0.9197395020000001           151.649563
        0.0229588997           37.6219814  0.06341579610000001    60.50710779999999   0.9197395020000001           151.649563          0.170063136    59.82945469999999

!
           310000000          0.196678193           47.9134625          0.912755039           144.813792  0.07867382370000001           45.7091578          0.024860937           23.4815351
         0.912755039           144.813792          0.193607444    53.74409189999999         0.0240528476            24.634979  0.07611337730000001            54.097865
 0.07867382370000001           45.7091578         0.0240528476            24.634979          0.187501412           48.8784073          0.914536716           144.794859
         0.024860937           23.4815351  0.07611337730000001            54.097865          0.914536716           144.794859          0.185690289           52.7882486

!
           320000000          0.211328351            41.131098          0.907360233           138.009878         0.0902484623           40.1040538           0.02666782            9.5440656
         0.907360233           138.009878          0.208219686           46.8351075         0.0258548372            10.493584         0.0878522236           47.7574265
        0.0902484623           40.1040538         0.0258548372            10.493584          0.202071512           42.0715512   0.9092862629999999           137.981585
          0.02666782            9.5440656         0.0878522236           47.7574265   0.9092862629999999           137.981585          0.200200722    45.88865570000001

!
           330000000           0.22472423           34.4336113          0.902046118           131.248499          0.100773431           34.3498363         0.0283688275   -4.205881160000001
         0.902046118           131.248499          0.221594962            40.060052         0.0275610675           -3.4250769  0.09853290739999999    41.50852789999999
         0.100773431           34.3498363         0.0275610675           -3.4250769          0.215398384           35.3579279          0.904105159           131.209906
        0.0283688275   -4.205881160000001  0.09853290739999999    41.50852789999999          0.904105159           131.209906          0.213476867           39.1181011

!
           340000000          0.236781037           27.8171973          0.896922979           124.528305          0.110170894             28.53379         0.0299561532          -17.7818309
         0.896922979           124.528305          0.233646922           33.4083382         0.0291627627          -17.1400167          0.108084465           35.3615186
         0.110170894             28.53379         0.0291627627          -17.1400167          0.227394067           28.7324596          0.899102754           124.478566
        0.0299561532          -17.7818309          0.108084465           35.3615186          0.899102754           124.478566          0.225430298    32.46629459999999

!
           350000000          0.247438837           21.2766425          0.892089402           117.846715          0.118390072           22.7032357         0.0314243787          -31.1965248
         0.892089402           117.846715          0.244314536           26.8702779         0.0306535013   -30.66815899999999          0.116460216    29.31970619999999
         0.118390072           22.7032357         0.0306535013   -30.66815899999999          0.237995619           22.1891478   0.8943770179999999           117.785078
        0.0314243787          -31.1965248          0.116460216    29.31970619999999   0.8943770179999999           117.785078          0.235997926           25.9238022

!
           360000000          0.256658073           14.8052548   0.8876301069999999           111.200143          0.125400883           16.8832499         0.0327698884   -44.46250659999999
  0.8876301069999999           111.200143          0.253557559           20.4363902         0.0320286548   -44.02527790000001           0.12363292           23.3819332
         0.125400883           16.8832499         0.0320286548   -44.02527790000001           0.24716073           15.7208576   0.8900123019999999           111.125949
        0.0327698884   -44.46250659999999           0.12363292           23.3819332   0.8900123019999999           111.125949          0.245137537           19.4813329

!
           370000000          0.264414942           8.39495951   0.8836150329999999           104.584217          0.131188216            11.085531         0.0339902794          -57.5923615
  0.8836150329999999           104.584217          0.261351882           14.0971146         0.0332848208            -57.22648          0.129589833           17.5441213
         0.131188216            11.085531         0.0332848208            -57.22648          0.254863174    9.319325480000002          0.886078348           104.496902
        0.0339902794          -57.5923615          0.129589833           17.5441213          0.886078348           104.496902           0.25282321           13.1294451

!
           380000000   0.2706970439999999           2.03648221          0.880099344            97.993995           0.13574687           5.31330123         0.0350838101   -70.59874240000001
         0.880099344            97.993995          0.267685166    7.842762210000001         0.0344192888          -70.2863983          0.134328103            11.800392
          0.13574687           5.31330123         0.0344192888          -70.2863983          0.261088501           2.97529183          0.882630227           97.8930834
        0.0350838101   -70.59874240000001          0.134328103            11.800392          0.882630227           97.8930834           0.25904099           6.85849728

!
           390000000          0.275499553   -4.280428200000001          0.877124027    91.42413550000001          0.139077298  -0.4357305060000001         0.0360489126          -83.4942652
         0.877124027    91.42413550000001          0.272553029           1.66361046         0.0354295664   -83.21920690000002          0.137850802    6.144007469999999
         0.139077298  -0.4357305060000001         0.0354295664   -83.21920690000002           0.26583025          -3.32130311   0.8797088740000001           91.3092389