! Tyco Electronics Strada Whisper System
! FEXT_H11112_G1112
!! 
!! SYSTEM DESCRIPTION: Daughtercard-Footprint-Connector-Footprint-Daughtercard
!! PCB DESCRIPTION: DC: 140mil, Megtron7N, upper layer route, 15mil stub, 6-6-6mil 4" traces
!! CONNECTOR DESCRIPTION: Next-Gen STRADA Whisper Direct-Plug Orthogonal Connector
!! MODEL DESCRIPTION: Tyco Electronics System 4-port S-parameter 
!! MODEL STATUS: Developmental
!! MODEL GEOMETRY: Channel Model
!! MODEL FREQUENCY RANGE: DC to 60 GHz in 10 MHz frequency steps
!! MODEL EDGE RATE LIMITATION: 8.3 ps (Using conservative 0.5/Fmax rule of thumb)
!! 
!! TIME-DOMAIN TRANSFORM CAUTIONS: 
!! 1.) Do not simulate transient edge rates faster than the number listed above.  Edge rates faster than this number 
!!     contain significant spectral content at frequencies above the model's highest frequency. 
!! 2.) Even when simulating edge rates that are slower than the number listed above, be aware that the best time 
!!     resolution possible with a direct iFFT is (1 / 2Fmax).  As a result, time resolution is typically not adequate 
!!     for most time-domain simulations unless tricks such as windowing are used to minimize leakage and aliasing. 
!! 3.) Because the model has a uniform frequency step, a direct iFFT will result in an impulse that that has a time 
!!     length given by either (1 / Fstep) or (1 / 2Fstep), depending on the transform being used.  Care has been taken 
!!     in selecting the frequency step to ensure a settled impulse response for the model.  Therefore, convolution with 
!!     the model's impulse response should present no issues.  However, if directly concatenating s-parameter models 
!!     in the frequency domain a user must either interpolate necessary interim frequencies or complete impulse response 
!!     zero-padding.  Impulse response zero-padding is more difficult, but more accurate. 
!! 
!! PORT DEFINITIONS: 
!! Port   1  ----->  TX Side	H11     G11     RX Side  <-----  Port   3
!! Port   2  ----->  TX Side	H12     G12     RX Side  <-----  Port   4
!! 
!!!!!!!!!!!!!!!!!!!!!!!!!!!!!!!!!!!!!!!!!!!!!!!!!!!!!!!!!!!!!!!!!!!!!!!!!!!!!!!!!!!!!!!!!!!!!!!!!!!!!!!!!!!!!!!!!!!!!!!!
! Touchstone data
! Created: 10-Dec-2018 by IdEM R2012 (8.0.5)
# Hz S MA R 50

!
                   0         0.0276104757                    0      3.51525471e-005                  180        0.00199318505                    0      2.89417905e-005                  180
     3.51525471e-005                  180         0.0274218517                    0      3.00428234e-005                  180        0.00186619137                    0
       0.00199318505                    0      3.00428234e-005                  180         0.0277289835                    0      3.45298043e-005                  180
     2.89417905e-005                  180        0.00186619137                    0      3.45298043e-005                  180         0.0276779639                    0

!
            10000000         0.0299547763           13.2506347      3.52499956e-005           169.124246         0.0140282695           74.7986993      3.08744548e-005           151.413271
     3.52499956e-005           169.124246          0.029805857           13.7757724      3.61432532e-005           138.321935         0.0139243463           75.4406856
        0.0140282695           74.7986993      3.61432532e-005           138.321935         0.0301808869           13.7721879       3.4588741e-005          -179.699209
     3.08744548e-005           151.413271         0.0139243463           75.4406856       3.4588741e-005          -179.699209         0.0301906805           14.3017307

!
            20000000         0.0350516589           21.7291351      3.56329862e-005           158.280069         0.0276016195           71.8419256      3.60638532e-005            127.18696
     3.56329862e-005           158.280069  0.03499626229999999           22.6452526      5.01906484e-005           111.086642         0.0274290219           72.4345727
        0.0276016195           71.8419256      5.01906484e-005           111.086642         0.0355337164           22.5038578 3.489277409999999e-005          -179.253328
     3.60638532e-005            127.18696         0.0274290219           72.4345727 3.489277409999999e-005          -179.253328         0.0356896179           23.4000242

!
            30000000         0.0415738578            25.373913      3.62993581e-005           147.484745         0.0407786198            66.218045 4.324522920000001e-005           107.883221
     3.62993581e-005           147.484745         0.0416387752           26.5965882      6.73386273e-005    93.04376840000001         0.0405520756    66.91359009999999
        0.0407786198            66.218045      6.73386273e-005    93.04376840000001         0.0423685711           26.2151688      3.55443006e-005          -178.609652
4.324522920000001e-005           107.883221         0.0405520756    66.91359009999999      3.55443006e-005          -178.609652  0.04271365360000001           27.3736423

!
            40000000         0.0485062709           25.6038427      3.72492373e-005           136.752787         0.0533294049    59.93897549999999      5.14570535e-005           92.2074798
     3.72492373e-005           136.752787         0.0487129592           27.1117093 8.570142449999998e-005           79.3062879         0.0530770223    60.77891870000001
        0.0533294049    59.93897549999999 8.570142449999998e-005           79.3062879  0.04962641250000001           26.4442384      3.66918705e-005           -177.83096
     5.14570535e-005           92.2074798         0.0530770223    60.77891870000001      3.66918705e-005           -177.83096         0.0501909297            27.834846

!
            50000000         0.0552025724           23.6356756      3.84832726e-005           126.091243  0.06506723590000001    53.41424910000001      6.01334526e-005    78.92333410000001
     3.84832726e-005           126.091243         0.0555772636    25.43825500000001       0.000104601933           67.7250102  0.06482647850000001           54.4180651
 0.06506723590000001    53.41424910000001       0.000104601933           67.7250102         0.0566459511           24.4631394      3.84941616e-005          -177.112098
     6.01334526e-005    78.92333410000001  0.06482647850000001           54.4180651      3.84941616e-005          -177.112098  0.05746219140000001           26.0897929

!
            60000000         0.0612460397           20.2510204      4.00019262e-005           115.498828  0.07582827609999999    46.78111950000001       6.8954808e-005           67.2157177
     4.00019262e-005           115.498828         0.0618216462           22.3720391       0.000123763284           57.3416726         0.0756445426           47.9618083
 0.07582827609999999    46.78111950000001       0.000123763284           57.3416726         0.0630058273           21.0729922      4.10807759e-005          -176.737469
      6.8954808e-005           67.2157177         0.0756445426           47.9618083      4.10807759e-005          -176.737469         0.0641119024    22.95332970000001

!
            70000000         0.0663517303           15.9232396      4.18048888e-005           104.966499         0.0854695515           40.0973511 7.773602059999999e-005           56.5861237
     4.18048888e-005           104.966499         0.0671671594           18.3957287       0.000143060092           47.6834983  0.08539513660000001    41.46609970000001
        0.0854695515           40.0973511       0.000143060092           47.6834983         0.0684197069           16.7536869      4.45231129e-005          -176.995439
7.773602059999999e-005           56.5861237  0.08539513660000001    41.46609970000001      4.45231129e-005          -176.995439         0.0698596283           18.9126947

!
            80000000  0.07031492659999999           10.9384575 4.389049230000001e-005    94.47893740000001  0.09386809390000001           33.3896736 8.636746399999998e-005           46.7285852
4.389049230000001e-005    94.47893740000001         0.0714137906           13.8048767       0.000162433852           38.4934124           0.09396129    34.95778690000001
 0.09386809390000001           33.3896736       0.000162433852           38.4934124  0.07268247430000001           11.7940999      4.88258198e-005          -178.096878
8.636746399999998e-005           46.7285852           0.09396129    34.95778690000001      4.88258198e-005          -178.096878  0.07450523200000001           14.2632887

!
            90000000         0.0729843739           5.46983768      4.62551107e-005           84.0164753          0.100919687           26.6701158      9.47853371e-005           37.4501941
     4.62551107e-005           84.0164753  0.07441357849999999           8.78463311       0.000181859157           29.6194785          0.101243982           28.4500621
         0.100919687           26.6701158       0.000181859157           29.6194785         0.0756427207           6.36977263      5.39375419e-005           179.860907
     9.47853371e-005           37.4501941          0.101243982           28.4500621      5.39375419e-005           179.860907         0.0779011148    9.188665670000003

!
           100000000         0.0742474829          -0.38088586      4.88925685e-005           73.5570599          0.106537254            19.942761       0.000102956435           28.6252393
     4.88925685e-005           73.5570599  0.07605570759999999           3.45326451       0.000201327772           20.9652409           0.10716058           21.9489026
         0.106537254            19.942761       0.000201327772           20.9652409         0.0771876224          0.585948505      5.97705752e-005           176.882079
      0.000102956435           28.6252393           0.10716058           21.9489026      5.97705752e-005           176.882079         0.0799369856    3.805072179999999

!
           110000000         0.0740215565   -6.561324170000001      5.17935715e-005           63.0779929          0.110649202           13.2070661       0.000110870036           20.1689301
     5.17935715e-005           63.0779929         0.0762574493          -2.11309785       0.000220839732           12.4655293          0.111643182           15.4563039
         0.110649202           13.2070661       0.000220839732           12.4655293         0.0772339241          -5.49919904      6.62192497e-005           173.036741
      0.000110870036           20.1689301          0.111643182           15.4563039      6.62192497e-005           173.036741         0.0805306496          -1.81356711

!
           120000000          0.072248532          -13.0585376 5.494516970000001e-005           52.5572962          0.113198096           6.45978186       0.000118533482           12.0219473
5.494516970000001e-005           52.5572962         0.0749582738   -7.866117709999998       0.000240397484           4.07386137           0.11463718           8.97224372
         0.113198096           6.45978186       0.000240397484           4.07386137  0.07572237110000001          -11.8630938      7.31723687e-005           168.425766
      0.000118533482           12.0219473           0.11463718           8.97224372      7.31723687e-005           168.425766         0.0796220265          -7.62136753

!
           130000000          0.068892366          -19.8988639 5.833025829999999e-005    41.97468049999999          0.114139935         -0.303747487       0.000125969735           4.14096932
5.833025829999999e-005    41.97468049999999  0.07211599639999999          -13.7769161       0.000260001467          -4.24447008          0.116100346           2.49613513
         0.114139935         -0.303747487       0.000260001467          -4.24447008  0.07261458609999999          -18.5157027      8.05196455e-005           163.156442
      0.000125969735           4.14096932          0.116100346           2.49613513      8.05196455e-005           163.156442         0.0771692273          -13.5923618

!
           140000000         0.0639391597          -27.1596525      6.19271219e-005           31.3121704          0.113444281   -7.088577009999999       0.000133215953          -3.50746527
     6.19271219e-005           31.3121704         0.0677044901          -19.8316189       0.000279646444           -12.516336          0.116002632          -3.97187818
         0.113444281   -7.088577009999999       0.000279646444           -12.516336         0.0678922183           -25.505323      8.81539245e-005           157.329301
      0.000133215953          -3.50746527          0.116002632          -3.97187818      8.81539245e-005           157.329301  0.07314621699999999   -19.71641290000001

!
           150000000         0.0574012339          -35.0031818      6.57090422e-005           20.5544763          0.111095322          -13.8992862       0.000140322426          -10.9511954
     6.57090422e-005           20.5544763         0.0617127703          -26.0302498 0.0002993183040000001          -20.7630668          0.114326839          -10.4295614
         0.111095322          -13.8992862 0.0002993183040000001          -20.7630668         0.0615588903          -32.9389448 9.597104190000001e-005           151.032783
      0.000140322426          -10.9511954          0.114326839          -10.4295614 9.597104190000001e-005           151.032783         0.0675418795          -25.9986803

!
           160000000         0.0493291332          -43.7651659      6.96440011e-005    9.689206310000001          0.107093891          -20.7391471       0.000147351277          -18.2155413
     6.96440011e-005    9.689206310000001         0.0541453619          -32.3904021       0.000318991264   -29.00179359999999          0.111070167          -16.8709499
         0.107093891          -20.7391471       0.000318991264   -29.00179359999999         0.0536468309   -41.03591170000001       0.000103868695           144.342416
      0.000147351277          -18.2155413          0.111070167          -16.8709499       0.000103868695           144.342416  0.06036041949999999          -32.4641212

!
           170000000          0.039845628   -54.20869620000001      7.36945418e-005          -1.29300062          0.101460298          -27.6092613       0.000154374429          -25.3256424
     7.36945418e-005          -1.29300062  0.04502390160000001          -38.9622867       0.000338625544          -37.2462113          0.106246624          -23.2841284
         0.101460298          -27.6092613       0.000338625544          -37.2462113  0.04423464740000001          -50.2769533       0.000111745223           137.322162
      0.000154374429          -25.3256424          0.106246624          -23.2841284       0.000111745223           137.322162         0.0516231259           -39.173146

!
           180000000         0.0292642032          -68.4039363      7.78178631e-005          -12.3983693  0.09423772050000001          -34.5075662       0.000161470355          -32.3081468
     7.78178631e-005          -12.3983693         0.0343901386   -45.88344770000001       0.000358165674          -45.5069828         0.0998901281   -29.64788359999999
 0.09423772050000001          -34.5075662       0.000358165674          -45.5069828         0.0335030994   -61.89607850000001       0.000119498884           130.026585
      0.000161470355          -32.3081468         0.0998901281   -29.64788359999999       0.000119498884           130.026585         0.0413718419          -46.2713497

!
           190000000         0.0186758441          -93.5641945      8.19662458e-005          -23.6298848         0.0854957428          -41.4275075       0.000168719349           -39.192212
     8.19662458e-005          -23.6298848         0.0223122306          -53.6428872       0.000377539704          -53.7919226         0.0920581217          -35.9261252
        0.0854957428          -41.4275075       0.000377539704          -53.7919226         0.0219840988   -80.02565730000001       0.000127028013           122.503132
      0.000168719349           -39.192212         0.0920581217          -35.9261252       0.000127028013           122.503132         0.0296764199          -54.1821945

!
           200000000         0.0133985135          -150.198368      8.60879071e-005   -34.98719220000001         0.0753334967          -48.3558784       0.000176197316          -46.0097109
     8.60879071e-005   -34.98719220000001 0.008924821180000001   -65.91490890000002       0.000396659582           -62.106057         0.0828354613          -42.0576063
        0.0753334967          -48.3558784       0.000396659582           -62.106057         0.0123854208          -123.268498       0.000134232276           114.794154
      0.000176197316          -46.0097109         0.0828354613          -42.0576063       0.000134232276           114.794154         0.0166661832          -64.7987579

!
           210000000         0.0214903901            156.80383      9.01283619e-005          -46.4665213         0.0638817859          -55.2684119        0.00018396853          -52.7945605
     9.01283619e-005          -46.4665213        0.00610189432           131.280152       0.000415423008          -70.4516368         0.0723385978   -47.93486430000001
        0.0638817859          -55.2684119       0.000415423008          -70.4516368         0.0156954971           164.923596       0.000141015068           106.938521
       0.00018396853          -52.7945605         0.0723385978   -47.93486430000001       0.000141015068           106.938521        0.00340891122          -114.612346

!
           220000000         0.0360488078           133.295972 9.403232539999999e-005   -58.06067230000001  0.05130357910000001          -62.1184986        0.00019207828           -59.581218
9.403232539999999e-005   -58.06067230000001         0.0217953911           114.440245       0.000433716931          -78.8281685         0.0607209048          -53.3554979
 0.05130357910000001          -62.1184986       0.000433716931          -78.8281685         0.0294490116           134.001413       0.000147286884           98.9727343
       0.00019207828           -59.581218         0.0607209048          -53.3554979       0.000147286884           98.9727343         0.0136996835           122.752003

!
           230000000         0.0527090574           119.341257      9.77461167e-005   -69.75910260000001         0.0377924917            -68.80001       0.000200546629          -66.4025692
     9.77461167e-005   -69.75910260000001         0.0385398371           106.058214 0.0004514227169999999          -87.2325187         0.0481833183   -57.89082609999999
        0.0377924917            -68.80001 0.0004514227169999999          -87.2325187         0.0458704285           118.656466       0.000152969284    90.93154440000001
      0.000200546629          -66.4025692         0.0481833183   -57.89082609999999       0.000152969284    90.93154440000001         0.0300092789           109.844487

!
           240000000         0.0704084581           108.680591       0.000101220434   -81.54814949999999         0.0235699252   -74.96971390000002       0.000209364604   -73.28760710000002
      0.000101220434   -81.54814949999999         0.0560387196    98.64431470000001       0.000468422745          -95.6591358  0.03500938720000001   -60.44827539999999
        0.0235699252   -74.96971390000002       0.000468422745          -95.6591358         0.0633998021           107.674259       0.000157998852           82.8480983
      0.000209364604   -73.28760710000002  0.03500938720000001   -60.44827539999999       0.000157998852           82.8480983         0.0471839279           101.230059

!
           250000000         0.0886737839           99.4775722       0.000104413272           -93.411411 0.008894990429999999          -78.0826416       0.000218493772          -80.2593863
      0.000104413272           -93.411411         0.0740628953           91.5195056 0.0004846079000000001          -104.100412         0.0217410214   -57.26101799999999
0.008894990429999999          -78.0826416 0.0004846079000000001          -104.100412  0.08151020069999999           98.4046063       0.000162330453           74.7536994
      0.000218493772          -80.2593863         0.0217410214   -57.26101799999999       0.000162330453           74.7536994         0.0649258358           93.5723464

!
           260000000          0.107164294    91.04550329999999       0.000107292683           -105.33028 0.006175288619999999           79.5330402       0.000227869501   -87.33367970000001
      0.000107292683           -105.33028  0.09237442830000002    84.51824810000001       0.000499885193          -112.547189         0.0107217136          -28.2491944
0.006175288619999999           79.5330402       0.000499885193          -112.547189          0.099854295           89.9777746       0.000165939132    66.67730930000001
      0.000227869501   -87.33367970000001         0.0107217136          -28.2491944       0.000165939132    66.67730930000001         0.0829866051           86.2765694

!
           270000000          0.125584382    83.08034309999999       0.000109839054          -117.284604          0.021042341           79.0299267       0.000237407413          -94.5185798
      0.000109839054          -117.284604          0.110729604    77.58761010000001       0.000514184578          -120.989381          0.013396926           38.5807797
         0.021042341           79.0299267       0.000514184578          -120.989381          0.118136381           82.0375918        0.00016882019    58.64495019999999
      0.000237407413          -94.5185798          0.013396926           38.5807797        0.00016882019    58.64495019999999          0.101119735    79.16264150000001

!
           280000000           0.14366573           75.4318608       0.000112046612          -129.253419         0.0357002961           73.2608647       0.000247011821          -101.815051
      0.000112046612          -129.253419          0.128886974           70.7108751       0.000527464067          -129.416666         0.0258133979           55.1125088
        0.0357002961           73.2608647       0.000527464067          -129.416666          0.136088514    74.41686350000001       0.000170987337           50.6791776
      0.000247011821          -101.815051         0.0258133979           55.1125088       0.000170987337           50.6791776          0.119082435           72.1635265

!
           290000000          0.161166407    68.02008290000001       0.000113923963          -141.215688         0.0498902927    66.93602730000001       0.000256584671          -109.218223
      0.000113923963          -141.215688          0.146615931           63.8852242 0.0005397124830000001           -137.81919         0.0393672767           55.9638218
        0.0498902927    66.93602730000001 0.0005397124830000001           -137.81919           0.15346857           67.0298213       0.000172469178           42.7987744
      0.000256584671          -109.218223         0.0393672767           55.9638218       0.000172469178           42.7987744           0.13664276           65.2527195

!
           300000000           0.17787383           60.7998618       0.000115493631          -153.150981  0.06341579610000001    60.50710779999999       0.000266033528          -116.719109
      0.000115493631          -153.150981          0.163704341    57.11327530000001        0.00055094953          -146.188201         0.0527416478           52.8862653
 0.06341579610000001    60.50710779999999        0.00055094953          -146.188201          0.170063136    59.82945469999999       0.000173304623           35.0187704
      0.000266033528          -116.719109         0.0527416478           52.8862653       0.000173304623           35.0187704          0.153586844    58.42032860000001

!
           310000000          0.193607444    53.74409189999999       0.000116790685          -165.040032  0.07611337730000001            54.097865       0.000275277588          -124.306415
      0.000116790685          -165.040032          0.179964371           50.3992481       0.000561223305          -154.516576  0.06554845650000001           48.3665044
 0.07611337730000001            54.097865       0.000561223305          -154.516576          0.185690289           52.7882486       0.000173537984           27.3508311
      0.000275277588          -124.306415  0.06554845650000001           48.3665044       0.000173537984           27.3508311          0.169724661           51.6634156

!
           320000000          0.208219686           46.8351075       0.000117860687          -176.865159         0.0878522236           47.7574265       0.000284251238          -131.968165
      0.000117860687          -176.865159          0.195236074    43.74702240000001       0.000570605724          -162.799182  0.07757481080000001           43.2044572
        0.0878522236           47.7574265       0.000570605724          -162.799182          0.200200722    45.88865570000001       0.000173214488            19.803996
      0.000284251238          -131.968165  0.07757481080000001           43.2044572       0.000173214488            19.803996          0.184893668    44.98152919999999

!
           330000000          0.221594962            40.060052       0.000118757247           171.389485  0.09853290739999999    41.50852789999999       0.000292905207          -139.693008
      0.000118757247           171.389485          0.209388657           37.1591225       0.000579186586          -171.033078         0.0886766155    37.73169530000001
 0.09853290739999999    41.50852789999999       0.000579186586          -171.033078          0.213476867           39.1181011       0.000172376814           12.3856993
      0.000292905207          -139.693008         0.0886766155    37.73169530000001       0.000172376814           12.3856993          0.198960203    38.37447530000001

!
           340000000          0.233646922           33.4083382       0.000119539485           159.737774          0.108084465           35.3615186       0.000301205731          -147.471123
      0.000119539485           159.737774          0.222319681           30.6362226 0.0005870670510000001          -179.217545  0.09875206039999999           32.1082456
         0.108084465           35.3615186 0.0005870670510000001          -179.217545          0.225430298    32.46629459999999       0.000171062971    5.102984350000001
      0.000301205731          -147.471123  0.09875206039999999           32.1082456       0.000171062971    5.102984350000001          0.211818828           31.8411912

!
           350000000          0.244314536           26.8702779       0.000120269637           148.191576          0.116460216    29.31970619999999       0.000309132316          -155.294755
      0.000120269637           148.191576          0.233952653           24.1769726       0.000594353233           172.646009          0.107730738           26.4184596
         0.116460216    29.31970619999999       0.000594353233           172.646009          0.235997926           25.9238022       0.000169305669          -2.03617857
      0.000309132316          -155.294755          0.107730738           26.4184596       0.000169305669          -2.03617857          0.223390059           25.3792225

!
           360000000          0.253557559           20.4363902       0.000121010999           136.760759           0.12363292           23.3819332        0.00031667469          -163.158451
      0.000121010999           136.760759          0.244233544           17.7780273       0.000601150424           164.554257          0.115566638           20.7084877
          0.12363292           23.3819332       0.000601150424           164.554257          0.245137537           19.4813329       0.000167133093   -9.021540249999999
       0.00031667469          -163.158451          0.115566638           20.7084877       0.000167133093   -9.021540249999999          0.233617014           18.9845504

!
           370000000          0.261351882           14.0971146       0.000121826275           125.453189          0.129589833           17.5441213        0.00032382946          -171.059055
      0.000121826275           125.453189          0.253126777           11.4341992       0.000607558232           156.502212          0.122232368           15.0031449
         0.129589833           17.5441213       0.000607558232           156.502212           0.25282321           13.1294451       0.000164570993          -15.8392355
       0.00032382946          -171.059055          0.122232368           15.0031449       0.000164570993          -15.8392355          0.242461492           12.6516244

!
           380000000          0.267685166    7.842762210000001       0.000122776362           114.274689          0.134328103            11.800392       0.000330596799          -178.995566
      0.000122776362           114.274689          0.260611127           5.13868012 0.0006136667449999999           148.483526          0.127714034           9.31440853
         0.134328103            11.800392 0.0006136667449999999           148.483526           0.25904099           6.85849728       0.000161645925          -22.4704936
      0.000330596799          -178.995566          0.127714034           9.31440853       0.000161645925          -22.4704936          0.249899953    6.373512629999999

!
           390000000          0.272553029           1.66361046       0.000123919497           103.228945          0.137850802    6.144007469999999       0.000336977379           173.031109
      0.000123919497           103.228945           0.26667588          -1.11670557       0.000619553634           140.490788          0.132006773    3.646134959999999
         0.137850802    6.144007469999999       0.000619553634           140.490788          0.263785104          0.658744199       0.000158389594          -28.8904374