! Tyco Electronics Strada Whisper System
! NEXT_F1112_G1112
!! 
!! SYSTEM DESCRIPTION: Daughtercard-Footprint-Connector-Footprint-Daughtercard
!! PCB DESCRIPTION: DC: 140mil, Megtron7N, upper layer route, 15mil stub, 6-6-6mil 4" traces
!! CONNECTOR DESCRIPTION: Next-Gen STRADA Whisper Direct-Plug Orthogonal Connector
!! MODEL DESCRIPTION: Tyco Electronics System 4-port S-parameter 
!! MODEL STATUS: Developmental
!! MODEL GEOMETRY: Channel Model
!! MODEL FREQUENCY RANGE: DC to 60 GHz in 10 MHz frequency steps
!! MODEL EDGE RATE LIMITATION: 8.3 ps (Using conservative 0.5/Fmax rule of thumb)
!! 
!! TIME-DOMAIN TRANSFORM CAUTIONS: 
!! 1.) Do not simulate transient edge rates faster than the number listed above.  Edge rates faster than this number 
!!     contain significant spectral content at frequencies above the model's highest frequency. 
!! 2.) Even when simulating edge rates that are slower than the number listed above, be aware that the best time 
!!     resolution possible with a direct iFFT is (1 / 2Fmax).  As a result, time resolution is typically not adequate 
!!     for most time-domain simulations unless tricks such as windowing are used to minimize leakage and aliasing. 
!! 3.) Because the model has a uniform frequency step, a direct iFFT will result in an impulse that that has a time 
!!     length given by either (1 / Fstep) or (1 / 2Fstep), depending on the transform being used.  Care has been taken 
!!     in selecting the frequency step to ensure a settled impulse response for the model.  Therefore, convolution with 
!!     the model's impulse response should present no issues.  However, if directly concatenating s-parameter models 
!!     in the frequency domain a user must either interpolate necessary interim frequencies or complete impulse response 
!!     zero-padding.  Impulse response zero-padding is more difficult, but more accurate. 
!! 
!! PORT DEFINITIONS: 
!! Port   1  ----->  RX Side	F11     G11     RX Side  <-----  Port   3
!! Port   2  ----->  RX Side	F12     G12     RX Side  <-----  Port   4
!! 
!!!!!!!!!!!!!!!!!!!!!!!!!!!!!!!!!!!!!!!!!!!!!!!!!!!!!!!!!!!!!!!!!!!!!!!!!!!!!!!!!!!!!!!!!!!!!!!!!!!!!!!!!!!!!!!!!!!!!!!!
! Touchstone data
! Created: 10-Dec-2018 by IdEM R2012 (8.0.5)
# Hz S MA R 50

!
                   0         0.0279146007                    0       2.7697109e-005                    0        0.00179932528                    0      2.53595605e-005                    0
      2.7697109e-005                    0         0.0260859071                    0      2.42103601e-005                    0         0.0016634531                    0
       0.00179932528                    0      2.42103601e-005                    0         0.0281770468                    0      2.77156793e-005                    0
     2.53595605e-005                    0         0.0016634531                    0      2.77156793e-005                    0         0.0263116572                    0

!
            10000000          0.030181518           12.8789761      2.84145537e-005          -23.4073119         0.0138943846           75.5837224      2.60888097e-005          -23.1063649
     2.84145537e-005          -23.4073119         0.0286165347    15.07174690000001      2.46799777e-005            -21.13977         0.0135871462    76.23226800000001
        0.0138943846           75.5837224      2.46799777e-005            -21.13977         0.0305618113           13.3732249      2.73159092e-005          -13.0043941
     2.60888097e-005          -23.1063649         0.0135871462    76.23226800000001      2.73159092e-005          -13.0043941         0.0289746503             15.61434

!
            20000000         0.0350988025            21.252345      3.05541617e-005          -45.5864131         0.0273724407           72.3302113      2.82149836e-005          -44.6787354
     3.05541617e-005          -45.5864131         0.0341229757           24.5376601      2.61031788e-005          -41.3880814           0.02680047           73.0221583
        0.0273724407           72.3302113      2.61031788e-005          -41.3880814         0.0357651214           21.9770695      2.62262581e-005          -26.4632394
     2.82149836e-005          -44.6787354           0.02680047           73.0221583      2.62262581e-005          -26.4632394         0.0347920508           25.2979275

!
            30000000         0.0414082147            24.985279      3.38921817e-005          -65.8466689         0.0404471367           66.6467543      3.14335304e-005            -63.98205
     3.38921817e-005          -65.8466689         0.0411152755    28.63768059999999      2.83498524e-005   -60.19957629999999          0.039645441           67.5144458
        0.0404471367           66.6467543      2.83498524e-005   -60.19957629999999           0.04243229            25.746934      2.45433469e-005          -40.9517165
     3.14335304e-005            -63.98205          0.039645441           67.5144458      2.45433469e-005          -40.9517165         0.0421623772           29.4096603

!
            40000000  0.04812421570000001           25.3835754      3.81871241e-005          -84.1029621          0.052895306           60.3712229        3.542753e-005   -81.04074369999999
     3.81871241e-005          -84.1029621         0.0485365089           29.1507152      3.12720225e-005   -77.41798780000001         0.0519206801    61.44881420000001
         0.052895306           60.3712229      3.12720225e-005   -77.41798780000001         0.0495285072           26.1056193      2.24616181e-005   -57.26639219999999
       3.542753e-005   -81.04074369999999         0.0519206801    61.44881420000001      2.24616181e-005   -57.26639219999999         0.0499800545           29.8674442

!
            50000000         0.0546073046           23.6120551      4.32494177e-005          -100.594956         0.0645318844           53.8778973      3.99529087e-005          -96.2197116
     4.32494177e-005          -100.594956         0.0557515799           27.4482729      3.47451759e-005          -93.1461699         0.0634583447           55.1795839
        0.0645318844           53.8778973      3.47451759e-005          -93.1461699  0.05639619790000001           24.2746767      2.03349387e-005   -76.49673060000001
     3.99529087e-005          -96.2197116         0.0634583447           55.1795839      2.03349387e-005   -76.49673060000001          0.057594955           28.0982802

!
            60000000         0.0604404556           20.4369998 4.895746420000001e-005          -115.643958         0.0751937741           47.2929499      4.48509253e-005          -109.926679
4.895746420000001e-005          -115.643958  0.06236440200000001             24.36376      3.86847574e-005          -107.593283         0.0741101872    48.82656130000001
        0.0751937741           47.2929499      3.86847574e-005          -107.593283         0.0626123213            21.040385      1.87706507e-005   -99.70414030000002
     4.48509253e-005          -109.926679         0.0741101872    48.82656130000001      1.87706507e-005   -99.70414030000002         0.0646069412            24.951636

!
            70000000         0.0653367797           16.3311571      5.52476388e-005          -129.542736         0.0847384068           40.6701971 5.003196219999999e-005          -122.504376
     5.52476388e-005          -129.542736  0.06810810939999999    20.38804070000001      4.30458274e-005          -120.983112  0.08374643180000001           42.4411942
        0.0847384068           40.6701971      4.30458274e-005          -120.983112  0.06788814359999999           16.8811741      1.86339869e-005          -126.500114
5.003196219999999e-005          -122.504376  0.08374643180000001           42.4411942      1.86339869e-005          -126.500114         0.0707483931           20.9214216

!
            80000000  0.06908937950000001           11.5859898 6.209908940000001e-005          -142.527842         0.0930430557    34.03529649999999 5.545617610000001e-005          -134.217029
6.209908940000001e-005          -142.527842  0.07279158669999998           15.8162418      4.78161655e-005          -133.517079         0.0922552572    36.04830090000001
        0.0930430557    34.03529649999999      4.78161655e-005          -133.517079         0.0720164018           12.0893145       2.0675731e-005          -153.574208
5.545617610000001e-005          -134.217029         0.0922552572    36.04830090000001       2.0675731e-005          -153.574208  0.07582845529999999           16.3019949

!
            90000000  0.07154479060000001    6.383330970000001      6.95207406e-005          -154.783841          0.100003665           27.4007196 6.111793819999999e-005          -145.265331
     6.95207406e-005          -154.783841  0.07627300469999999           10.8311405      5.30082299e-005          -145.365973  0.09954178360000002           29.6601592
         0.100003665           27.4007196      5.30082299e-005          -145.365973  0.07484381649999999    6.845983260000001      2.50184513e-005          -177.138083
6.111793819999999e-005          -145.265331  0.09954178360000002           29.6601592      2.50184513e-005          -177.138083  0.07970586489999999           11.2744021

!
           100000000         0.0725880325          0.836804716 7.754148360000001e-005          -166.455124          0.105533299           20.7720467      6.70341371e-005          -155.804375
7.754148360000001e-005          -166.455124  0.07844552840000001           5.54870727      5.86517552e-005          -156.672574          0.105526627           23.2823755
         0.105533299           20.7720467      5.86517552e-005          -156.672574         0.0762557831           1.26389885      3.13012522e-005            163.79637
     6.70341371e-005          -155.804375          0.105526627           23.2823755      3.13012522e-005            163.79637         0.0822744079    5.952738550000001

!
           110000000         0.0721335142   -4.984828989999999      8.62027196e-005          -177.656906          0.109560557           14.1511906      7.32350988e-005          -165.957659
     8.62027196e-005          -177.656906         0.0792287483         0.0434043179      6.47872003e-005           -167.55679          0.110144299           16.9168329
         0.109560557           14.1511906      6.47872003e-005           -167.55679         0.0761671073          -4.58884073      3.91419413e-005           148.320534
     7.32350988e-005          -165.957659          0.110144299           16.9168329      3.91419413e-005           148.320534         0.0834542319          0.409620404

!
           120000000  0.07011924880000001          -11.0451208      9.55522656e-005           171.516552          0.112028307    7.538428599999999      7.97570736e-005          -175.826558
     9.55522656e-005           171.516552         0.0785631091          -5.63734518      7.14598158e-005          -178.120224          0.113341759           10.5634833
         0.112028307    7.538428599999999      7.14598158e-005          -178.120224          0.074516113          -10.6758451       4.8306898e-005           135.306449
     7.97570736e-005          -175.826558          0.113341759           10.5634833       4.8306898e-005           135.306449         0.0831861969          -5.30938627

!
           130000000         0.0665033142          -17.3348112       0.000105638858           160.986364          0.112893054   0.9339891379999998 8.663563729999999e-005           174.503819
      0.000105638858           160.986364  0.07640619880000001          -11.4647296       7.8714052e-005           171.550577          0.115077385           4.22167667
         0.112893054   0.9339891379999998       7.8714052e-005           171.550577  0.07126101980000001            -16.98671      5.86883974e-005           123.921345
8.663563729999999e-005           174.503819          0.115077385           4.22167667      5.86883974e-005           123.921345         0.0814281021           -11.177459

!
           140000000         0.0612621941          -23.8740398       0.000116506737           150.685462          0.112125149          -5.66043423 9.389965699999999e-005           164.961297
      0.000116506737           150.685462         0.0727304391          -17.4238129      8.65881156e-005           161.382083          0.115320566          -2.10865275
         0.112125149          -5.66043423      8.65881156e-005           161.382083         0.0663782025          -23.5377737      7.02556219e-005           113.614316
9.389965699999999e-005           164.961297          0.115320566          -2.10865275      7.02556219e-005           113.614316  0.07815232210000001          -17.1819544

!
           150000000         0.0543910436          -30.7266001       0.000128190031            140.55647          0.109709975          -12.2399742       0.000101565694            155.48495
      0.000128190031            140.55647         0.0675219925          -23.5115804 9.510858169999999e-005            151.31259          0.114052055          -8.42574213
         0.109709975          -12.2399742 9.510858169999999e-005            151.31259         0.0598623378           -30.382325      8.30189234e-005           104.023113
      0.000101565694            155.48495          0.114052055          -8.42574213      8.30189234e-005           104.023113  0.07334467710000002          -23.3226666

!
           160000000         0.0459065347          -38.0442147       0.000140706831           130.550567          0.105650118          -18.7943727        0.00010963288           146.024401
      0.000140706831           130.550567  0.06078080720000001          -29.7381556       0.000104285092           141.291569          0.111265142          -14.7245109
         0.105650118          -18.7943727       0.000104285092           141.291569         0.0517289192          -37.6418583 9.700565250000001e-005    94.90353890000002
       0.00010963288           146.024401          0.111265142          -14.7245109 9.700565250000001e-005    94.90353890000002         0.0670044667           -29.613241

!
           170000000         0.0358551937   -46.21239740000001       0.000154053105           120.626975         0.0999684354            -25.30474       0.000118078441           136.539659
      0.000154053105           120.626975         0.0525217485          -36.1340186       0.000114105299           131.279289          0.106967629          -20.9945658
        0.0999684354            -25.30474       0.000114105299           131.279289         0.0420211217          -45.6002457       0.000112242232           86.0861815
      0.000118078441           136.539659          0.106967629          -20.9945658       0.000112242232           86.0861815         0.0591456458          -36.0881847

!
           180000000         0.0243438148          -56.4847198       0.000168196808           110.752852  0.09271184120000001          -31.7382758       0.000126854191           127.001188
      0.000168196808           110.752852         0.0427768269          -42.7740051       0.000124530377           121.246546          0.101184517          -27.2172467
 0.09271184120000001          -31.7382758       0.000124530377           121.246546         0.0308304718   -55.04902100000001       0.000128739424    77.45120180000001
      0.000126854191           127.001188          0.101184517          -27.2172467       0.000128739424    77.45120180000001         0.0497992046          -42.8239572

!
           190000000         0.0117691508          -76.0334735       0.000183072777           100.903386         0.0839555749          -38.0387156       0.000135884438           117.389981
      0.000183072777           100.903386         0.0315989979          -49.8663336       0.000135491577           111.174408         0.0939612759          -33.3608202
        0.0839555749          -38.0387156       0.000135491577           111.174408         0.0183998687   -69.18633180000001       0.000146479701            68.913669
      0.000135884438           117.389981         0.0939612759          -33.3608202       0.000146479701            68.913669         0.0390173091   -50.00656780000001

!
           200000000        0.00618385085           173.958989       0.000198579245           91.0619343  0.07380787110000001          -44.1070516       0.000145065817           107.697538
      0.000198579245           91.0619343         0.0190720781   -58.23871820000001       0.000146888447           101.053889  0.08536750980000001          -39.3718958
 0.07380787110000001          -44.1070516       0.000146888447           101.053889 0.006652534550000001          -118.044586       0.000165406836           60.4148448
      0.000145065817           107.697538  0.08536750980000001          -39.3718958       0.000165406836           60.4148448         0.0268829118          -58.2128763

!
           210000000         0.0201200487           129.102379       0.000214576866           81.2200768         0.0624156511           -49.757559       0.000154269568           97.9256357
      0.000214576866           81.2200768        0.00543688635          -77.6229161        0.00015858938    90.88549980000001  0.07550104489999999          -45.1585207
        0.0624156511           -49.757559        0.00015858938    90.88549980000001          0.013461537           141.187333       0.000185418556           51.9167461
      0.000154269568           97.9256357  0.07550104489999999          -45.1585207       0.000185418556           51.9167461         0.0135629874          -70.4879558

!
           220000000         0.0366223475           115.913713       0.000230891134           71.3774647  0.04997466390000001          -54.6011307       0.000163346645           88.0858393
      0.000230891134           71.3774647 0.009948541789999999           123.618414        0.00017043508    80.67862390000001         0.0644930162          -50.5530057
 0.04997466390000001          -54.6011307        0.00017043508    80.67862390000001         0.0292281239           120.322365       0.000206363368           43.3984506
      0.000163346645           88.0858393         0.0644930162          -50.5530057       0.000206363368           43.3984506         0.0030648414           178.715775

!
           230000000         0.0541444688           106.572385 0.0002473187499999999           61.5413763         0.0367600802          -57.6646028       0.000172135717           78.1987022
0.0002473187499999999           61.5413763          0.025836023           111.073727       0.000182245286           70.4506672         0.0525167915           -55.218383
        0.0367600802          -57.6646028       0.000182245286           70.4506672  0.04637884530000001           109.206809       0.000228042615    34.85325050000001
      0.000172135717           78.1987022         0.0525167915           -55.218383       0.000228042615    34.85325050000001         0.0172083674           117.388208

!
           240000000         0.0723421918    98.37962600000002       0.000263637965           51.7259226         0.0232725988          -55.6926534       0.000180473739           68.2926375
      0.000263637965           51.7259226         0.0426149658           103.010594       0.000193828623    60.22594430000001         0.0398126569   -58.36663690000001
        0.0232725988          -55.6926534       0.000193828623    60.22594430000001  0.06429043339999999           100.306569       0.000250218333           26.2861492
      0.000180473739           68.2926375         0.0398126569   -58.36663690000001       0.000250218333           26.2861492         0.0335877641           106.285217

!
           250000000         0.0909404062           90.6767929       0.000279622274           41.9508962         0.0114739472   -31.50463530000001        0.00018820821           58.4024592
      0.000279622274           41.9508962          0.060032812           95.7263081       0.000204994921    50.03429800000001          0.026789594   -57.65796400000001
        0.0114739472   -31.50463530000001       0.000204994921    50.03429800000001  0.08264662740000001    92.24069230000001       0.000272626659           17.7114358
       0.00018820821           58.4024592          0.026789594   -57.65796400000001       0.000272626659           17.7114358         0.0506884818    98.06601580000002

!
           260000000          0.109671548    83.23363569999999       0.000295056052            32.240307         0.0125805647    38.08876229999999       0.000195209834           48.5676362
      0.000295056052            32.240307         0.0778662437           88.7078582       0.000215568783           39.9094845         0.0146891881          -43.0142968
        0.0125805647    38.08876229999999       0.000215568783           39.9094845          0.101168675           84.5827743       0.000294995602           9.15023828
      0.000195209834           48.5676362         0.0146891881          -43.0142968       0.000294995602           9.15023828  0.06824563409999999           90.6120772

!
           270000000          0.128272898            75.954827       0.000309750268            22.620698  0.02508552840000001    57.50886700000001       0.000201384051           38.8303312
      0.000309750268            22.620698  0.09588637410000001             81.81478       0.000225402814           29.8873943         0.0108233933           17.0615466
 0.02508552840000001    57.50886700000001       0.000225402814           29.8873943          0.119589334    77.16518820000002       0.000317065087          0.628064709
      0.000201384051           38.8303312         0.0108233933           17.0615466       0.000317065087          0.628064709         0.0860230151           83.4731037

!
           280000000          0.146493122            68.797883       0.000323556205           13.1193738         0.0390358916           58.7151897       0.000206679974    29.23332600000001
      0.000323556205           13.1193738           0.11386258           74.9992898       0.000234388837           20.0042156         0.0208545923           50.7894943
        0.0390358916           58.7151897       0.000234388837           20.0042156           0.13765445           69.9133339       0.000338606643   -7.827583710000003
      0.000206679974    29.23332600000001         0.0208545923           50.7894943       0.000338606643   -7.827583710000003          0.103787858           76.5028808

!
           290000000          0.164100046    61.74360660000001       0.000336375415           3.76268864         0.0528714262           55.6206102       0.000211095641            19.817945
      0.000336375415           3.76268864          0.131569905           68.2452794       0.000242465743           10.2946564         0.0340162291           55.8849062
        0.0528714262           55.6206102       0.000242465743           10.2946564          0.155129308           62.7918394        0.00035944015          -16.1894122
      0.000211095641            19.817945         0.0340162291           55.8849062        0.00035944015          -16.1894122          0.121313912    69.64487459999999

!
           300000000          0.180887213           54.7834552       0.000348164825          -5.42546953         0.0661619435           50.9980987        0.00021467911           10.6220782
      0.000348164825          -5.42546953          0.148796559           61.5491801       0.000249623152          0.790338823  0.04741947979999999    54.29275740000001
        0.0661619435           50.9980987       0.000249623152          0.790338823          0.171804754           55.7832598       0.000379445582          -24.4322272
       0.00021467911           10.6220782  0.04741947979999999    54.29275740000001       0.000379445582          -24.4322272          0.138387881           62.8760535

!
           310000000          0.196678193           47.9134625 0.0003589367399999999          -14.4248914  0.07867382370000001           45.7091578       0.000217525582           1.67838193
0.0003589367399999999          -14.4248914          0.165350289           54.9124048       0.000255900828   -8.481551100000001         0.0604571073           50.4737388
 0.07867382370000001           45.7091578       0.000255900828   -8.481551100000001          0.187501412           48.8784073       0.000398568687          -32.5344363
      0.000217525582           1.67838193         0.0604571073           50.4737388       0.000398568687          -32.5344363          0.154815517            56.187398

!
           320000000          0.211328351            41.131098 0.0003687543829999999          -23.2198963         0.0902484623           40.1040538       0.000219771289          -6.98729665
0.0003687543829999999          -23.2198963          0.181062971           48.3378548       0.000261384402          -17.4993106         0.0728561162           45.7037812
        0.0902484623           40.1040538       0.000261384402          -17.4993106          0.202071512           42.0715512       0.000416820605          -40.4791047
      0.000219771289          -6.98729665         0.0728561162           45.7037812       0.000416820605          -40.4791047          0.170426186           49.5757779

!
           330000000           0.22472423           34.4336113       0.000377724162   -31.79980949999999          0.100773431           34.3498363       0.000221585188          -15.3572507
      0.000377724162   -31.79980949999999          0.195793118    41.82814639999999       0.000266198442   -26.24745980000001         0.0844428071           40.4740708
         0.100773431           34.3498363       0.000266198442   -26.24745980000001          0.215398384           35.3579279        0.00043427237          -48.2545692
      0.000221585188          -15.3572507         0.0844428071           40.4740708        0.00043427237          -48.2545692          0.185075474    43.04013299999999

!
           340000000          0.236781037           27.8171973       0.000385986137          -40.1591018          0.110170894             28.53379       0.000223159545          -23.4229894
      0.000385986137          -40.1591018          0.209426377           35.3846929       0.000270498027          -34.7172004  0.09509443450000001           35.0115844
         0.110170894             28.53379       0.000270498027          -34.7172004          0.227394067           28.7324596       0.000451045808   -55.85465050000001
      0.000223159545          -23.4229894  0.09509443450000001           35.0115844       0.000451045808   -55.85465050000001          0.198645818           36.5795551

!
           350000000          0.247438837           21.2766425       0.000393704089          -48.2972546          0.118390072           22.7032357       0.000224700331          -31.1860332
      0.000393704089          -48.2972546          0.221874275           29.0072669       0.000274459936          -42.9066384          0.104723549           29.4337131
         0.118390072           22.7032357       0.000274459936          -42.9066384          0.237995619           22.1891478       0.000467302518          -63.2785363
      0.000224700331          -31.1860332          0.104723549           29.4337131       0.000467302518          -63.2785363          0.211045403           30.1923256

!
           360000000          0.256658073           14.8052548       0.000401056292          -56.2184327          0.125400883           16.8832499       0.000226418055          -38.6583746
      0.000401056292          -56.2184327          0.233071665           22.6938553       0.000278274252   -50.82081730000001          0.113270015           23.8050958
         0.125400883           16.8832499       0.000278274252   -50.82081730000001           0.24716073           15.7208576       0.000483232448   -70.53042139999999
      0.000226418055          -38.6583746          0.113270015           23.8050958       0.000483232448   -70.53042139999999          0.222205746           23.8754776

!
           370000000          0.264414942           8.39495951       0.000408227665   -63.93104369999999          0.131188216            11.085531       0.000228519392          -45.8625123
      0.000408227665   -63.93104369999999          0.242973349    16.44069620000001       0.000282136869   -58.47159750000001          0.120695171           18.1619627
         0.131188216            11.085531       0.000282136869   -58.47159750000001          0.254863174    9.319325480000002       0.000499043186   -77.61898979999999
      0.000228519392          -45.8625123          0.120695171           18.1619627       0.000499043186   -77.61898979999999          0.232078444           17.6246615

!
           380000000   0.2706970439999999           2.03648221       0.000415403569   -71.44725579999999           0.13574687           5.31330123       0.000231199739          -52.8309455
      0.000415403569   -71.44725579999999          0.251550342           10.2424245       0.000286243046          -65.8773932          0.126976779           12.5238749
          0.13574687           5.31330123       0.000286243046          -65.8773932          0.261088501           2.97529183        0.00051495061          -84.5568164
      0.000231199739          -52.8309455          0.126976779           12.5238749        0.00051495061          -84.5568164          0.240631532           11.4341895

!
           390000000          0.275499553   -4.280428200000001       0.000422765179          -78.7825234          0.139077298  -0.4357305060000001       0.000234636752   -59.60503309999999
      0.000422765179          -78.7825234          0.258786144    4.092279110000001       0.000290781945   -73.06275910000001          0.132104521           6.89996753
         0.139077298  -0.4357305060000001       0.000290781945   -73.06275910000001           0.26583025          -3.32130311       0.000531171109           -91.359746