! Tyco Electronics Strada Whisper System
! FEXT_H1415_G1112
!! 
!! SYSTEM DESCRIPTION: Daughtercard-Footprint-Connector-Footprint-Daughtercard
!! PCB DESCRIPTION: DC: 140mil, Megtron7N, upper layer route, 15mil stub, 6-6-6mil 4" traces
!! CONNECTOR DESCRIPTION: Next-Gen STRADA Whisper Direct-Plug Orthogonal Connector
!! MODEL DESCRIPTION: Tyco Electronics System 4-port S-parameter 
!! MODEL STATUS: Developmental
!! MODEL GEOMETRY: Channel Model
!! MODEL FREQUENCY RANGE: DC to 60 GHz in 10 MHz frequency steps
!! MODEL EDGE RATE LIMITATION: 8.3 ps (Using conservative 0.5/Fmax rule of thumb)
!! 
!! TIME-DOMAIN TRANSFORM CAUTIONS: 
!! 1.) Do not simulate transient edge rates faster than the number listed above.  Edge rates faster than this number 
!!     contain significant spectral content at frequencies above the model's highest frequency. 
!! 2.) Even when simulating edge rates that are slower than the number listed above, be aware that the best time 
!!     resolution possible with a direct iFFT is (1 / 2Fmax).  As a result, time resolution is typically not adequate 
!!     for most time-domain simulations unless tricks such as windowing are used to minimize leakage and aliasing. 
!! 3.) Because the model has a uniform frequency step, a direct iFFT will result in an impulse that that has a time 
!!     length given by either (1 / Fstep) or (1 / 2Fstep), depending on the transform being used.  Care has been taken 
!!     in selecting the frequency step to ensure a settled impulse response for the model.  Therefore, convolution with 
!!     the model's impulse response should present no issues.  However, if directly concatenating s-parameter models 
!!     in the frequency domain a user must either interpolate necessary interim frequencies or complete impulse response 
!!     zero-padding.  Impulse response zero-padding is more difficult, but more accurate. 
!! 
!! PORT DEFINITIONS: 
!! Port   1  ----->  TX Side	H14     G11     RX Side  <-----  Port   3
!! Port   2  ----->  TX Side	H15     G12     RX Side  <-----  Port   4
!! 
!!!!!!!!!!!!!!!!!!!!!!!!!!!!!!!!!!!!!!!!!!!!!!!!!!!!!!!!!!!!!!!!!!!!!!!!!!!!!!!!!!!!!!!!!!!!!!!!!!!!!!!!!!!!!!!!!!!!!!!!
! Touchstone data
! Created: 10-Dec-2018 by IdEM R2012 (8.0.5)
# Hz S MA R 50

!
                   0         0.0276104757                    0      1.00406149e-006                  180        0.00199318505                    0      1.35518032e-006                  180
     1.00406149e-006                  180          0.029732919                    0      7.03213064e-007                  180        0.00228532244                    0
       0.00199318505                    0      7.03213064e-007                  180         0.0277289835                    0      1.26084998e-006                  180
     1.35518032e-006                  180        0.00228532244                    0      1.26084998e-006                  180         0.0301837674                    0

!
            10000000         0.0299547763           13.2506347 8.675037650000001e-006           88.3238697         0.0140282695           74.7986993      3.16106477e-006          -126.205983
8.675037650000001e-006           88.3238697         0.0322754601           13.5966499      1.75858396e-005            83.782062         0.0133259075            73.174007
        0.0140282695           74.7986993      1.75858396e-005            83.782062         0.0301808869           13.7721879      1.84355057e-006           124.722213
     3.16106477e-006          -126.205983         0.0133259075            73.174007      1.84355057e-006           124.722213         0.0327474621           13.5329163

!
            20000000         0.0350516589           21.7291351      1.72050729e-005    76.73416829999999         0.0276016195           71.8419256 5.817438389999999e-006          -125.132153
     1.72050729e-005    76.73416829999999         0.0378848899           22.3092969      3.50200346e-005            74.161344         0.0261133703           71.1281896
        0.0276016195           71.8419256      3.50200346e-005            74.161344         0.0355337164           22.5038578      2.99364857e-006    98.11073090000001
5.817438389999999e-006          -125.132153         0.0261133703           71.1281896      2.99364857e-006    98.11073090000001         0.0384173023           22.2139131

!
            30000000         0.0415738578            25.373913      2.56495825e-005           67.3780628         0.0407786198            66.218045 8.471651330000001e-006          -131.703514
     2.56495825e-005           67.3780628         0.0450903099           26.0888729      5.22396118e-005           65.3365862         0.0385188384           65.8731019
        0.0407786198            66.218045      5.22396118e-005           65.3365862         0.0423685711           26.2151688 4.320534489999999e-006           81.7849284
8.471651330000001e-006          -131.703514         0.0385188384           65.8731019 4.320534489999999e-006           81.7849284         0.0457116299           25.9785946

!
            40000000         0.0485062709           25.6038427      3.39524521e-005           58.6228186         0.0533294049    59.93897549999999      1.10153013e-005           -140.40657
     3.39524521e-005           58.6228186         0.0527817983           26.4132243      6.91605204e-005    56.74650020000001          0.050297066           59.8273708
        0.0533294049    59.93897549999999      6.91605204e-005    56.74650020000001  0.04962641250000001           26.4442384      5.76003522e-006           69.0568191
     1.10153013e-005           -140.40657          0.050297066           59.8273708      5.76003522e-006           69.0568191         0.0535100751           26.2915633

!
            50000000         0.0552025724           23.6356756      4.20765022e-005           50.1476376  0.06506723590000001    53.41424910000001      1.33963303e-005          -149.999507
     4.20765022e-005           50.1476376         0.0602626561           24.5332561       8.5713898e-005           48.2857829  0.06125686790000001           53.4876871
 0.06506723590000001    53.41424910000001       8.5713898e-005           48.2857829         0.0566459511           24.4631394       7.3120241e-006           57.9097935
     1.33963303e-005          -149.999507  0.06125686790000001           53.4876871       7.3120241e-006           57.9097935         0.0611090242           24.3985351

!
            60000000         0.0612460397           20.2510204      4.99951002e-005    41.85039819999999  0.07582827609999999    46.78111950000001      1.55760119e-005          -160.062762
     4.99951002e-005    41.85039819999999         0.0670887451    21.24659880000001       0.000101845992    39.92367140000001         0.0712321269           47.0225678
 0.07582827609999999    46.78111950000001       0.000101845992    39.92367140000001         0.0630058273           21.0729922 8.991561829999999e-006           47.5739236
     1.55760119e-005          -160.062762         0.0712321269           47.0225678 8.991561829999999e-006           47.5739236  0.06806031379999999           21.0954364

!
            70000000         0.0663517303           15.9232396      5.76912095e-005           33.6896828         0.0854695515           40.0973511      1.75222966e-005          -170.424948
     5.76912095e-005           33.6896828         0.0729585784           17.0356792         0.0001175186           31.6491631  0.08007847610000002           40.5051363
        0.0854695515           40.0973511         0.0001175186           31.6491631         0.0684197069           16.7536869      1.08184909e-005           37.6950019
     1.75222966e-005          -170.424948  0.08007847610000002           40.5051363      1.08184909e-005           37.6950019         0.0740601902           16.8639567

!
            80000000  0.07031492659999999           10.9384575      6.51567547e-005           25.6451428  0.09386809390000001           33.3896736       1.9208111e-005           178.986796
     6.51567547e-005           25.6451428  0.07765622279999999           12.1942887       0.000132708482           23.4573006  0.08767212269999999           33.9718847
 0.09386809390000001           33.3896736       0.000132708482           23.4573006  0.07268247430000001           11.7940999      1.28142715e-005           28.0863107
      1.9208111e-005           178.986796  0.08767212269999999           33.9718847      1.28142715e-005           28.0863107         0.0788914642           11.9972391

!
            90000000         0.0729843739           5.46983768 7.239162590000001e-005           17.7043613          0.100919687           26.6701158      2.06107143e-005           168.196919
7.239162590000001e-005           17.7043613          0.081021947    6.904615520000001       0.000147405799           15.3446964  0.09390850269999999           27.4426583
         0.100919687           26.6701158       0.000147405799           15.3446964         0.0756427207           6.36977263      1.50006289e-005           18.6388325
     2.06107143e-005           168.196919  0.09390850269999999           27.4426583      1.50006289e-005           18.6388325          0.082393735    6.676605400000001

!
           100000000         0.0742474829          -0.38088586      7.94023155e-005    9.857754009999999          0.106537254            19.942761      2.17113922e-005           157.200641
     7.94023155e-005    9.857754009999999         0.0829360847           1.28078171        0.00016161183    7.307902300000003         0.0987006694           20.9291264
         0.106537254            19.942761        0.00016161183    7.307902300000003         0.0771876224          0.585948505      1.73987384e-005    9.283770300000001
     2.17113922e-005           157.200641         0.0987006694           20.9291264      1.73987384e-005    9.283770300000001          0.084447017           1.01493275

!
           110000000         0.0740215565   -6.561324170000001      8.62003021e-005           2.09644503          0.110649202           13.2070661      2.24953928e-005           145.971224
     8.62003021e-005           2.09644503         0.0833094199   -4.606684050000001       0.000175336257         -0.657143819          0.101977723           14.4392284
         0.110649202           13.2070661       0.000175336257         -0.657143819         0.0772339241          -5.49919904      2.00285644e-005        -0.0248992598
     2.24953928e-005           145.971224          0.101977723           14.4392284      2.00285644e-005        -0.0248992598  0.08496199370000002          -4.91904049

!
           120000000          0.072248532          -13.0585376 9.280030280000001e-005   -5.588587750000001          0.113198096           6.45978186      2.29521923e-005           134.461482
9.280030280000001e-005   -5.588587750000001  0.08207718729999999          -10.7171527       0.000188594295          -8.55519833          0.103683654    7.980147170000001
         0.113198096           6.45978186       0.000188594295          -8.55519833  0.07572237110000001          -11.8630938      2.29082121e-005          -9.31927709
     2.29521923e-005           134.461482          0.103683654    7.980147170000001      2.29082121e-005          -9.31927709  0.08387395139999998          -11.0872691

!
           130000000          0.068892366          -19.8988639      9.92185025e-005          -13.2067613          0.114139935         -0.303747487      2.30762693e-005           122.601475
     9.92185025e-005          -13.2067613         0.0791954606          -17.0328185       0.000201403869          -16.3915636          0.103776918           1.56089812
         0.114139935         -0.303747487       0.000201403869          -16.3915636  0.07261458609999999          -18.5157027      2.60532217e-005          -18.6223426
     2.30762693e-005           122.601475          0.103776918           1.56089812      2.60532217e-005          -18.6223426  0.08113915720000001          -17.4757376

!
           140000000         0.0639391597          -27.1596525       0.000105470843          -20.7678194          0.113444281   -7.088577009999999      2.28686649e-005           110.292641
      0.000105470843          -20.7678194  0.07463944320000002          -23.5566931       0.000213783045          -24.1718229          0.102231016          -4.80481101
         0.113444281   -7.088577009999999       0.000213783045          -24.1718229         0.0678922183           -25.505323      2.94757753e-005          -27.9506782
     2.28686649e-005           110.292641          0.102231016          -4.80481101      2.94757753e-005          -27.9506782          0.076733207          -24.0931701

!
           150000000         0.0574012339          -35.0031818       0.000111571448          -28.2815831          0.111095322          -13.8992862      2.23397577e-005    97.39769710000002
      0.000111571448          -28.2815831         0.0684035066          -30.3164815       0.000225747856          -31.9015159  0.09903624179999999          -11.0947893
         0.111095322          -13.8992862       0.000225747856          -31.9015159         0.0615588903          -32.9389448      3.31838055e-005          -37.3160388
     2.23397577e-005    97.39769710000002  0.09903624179999999          -11.0947893      3.31838055e-005          -37.3160388  0.07065124189999998          -30.9761988

!
           160000000         0.0493291332          -43.7651659       0.000117531244          -35.7575896          0.107093891          -20.7391471      2.15139475e-005           83.7252177
      0.000117531244          -35.7575896  0.06050305789999999   -37.37926630000001       0.000237310652          -39.5857893  0.09420271819999999           -17.272621
         0.107093891          -20.7391471       0.000237310652          -39.5857893         0.0536468309   -41.03591170000001      3.71800267e-005   -46.72623030000001
     2.15139475e-005           83.7252177  0.09420271819999999           -17.272621      3.71800267e-005   -46.72623030000001         0.0629102436           -38.206459

!
           170000000          0.039845628   -54.20869620000001        0.00012335687          -43.2046619          0.101460298          -27.6092613      2.04373649e-005            69.008661
       0.00012335687          -43.2046619         0.0509788227          -44.8938908       0.000248479097          -47.2290465         0.0877648524          -23.2780009
         0.101460298          -27.6092613       0.000248479097          -47.2290465  0.04423464740000001          -50.2769533      4.14609424e-005          -56.1855523
     2.04373649e-005            69.008661         0.0877648524          -23.2780009      4.14609424e-005          -56.1855523  0.05355436410000001           -45.957464

!
           180000000         0.0292642032          -68.4039363        0.00012904996          -50.6304409  0.09423772050000001          -34.5075662      1.91902445e-005    52.88476069999999
       0.00012904996          -50.6304409         0.0399062946          -53.2256528       0.000259255925   -54.83462230000001         0.0797875336          -29.0088419
 0.09423772050000001          -34.5075662       0.000259255925   -54.83462230000001         0.0335030994   -61.89607850000001      4.60159194e-005           -65.694968
     1.91902445e-005    52.88476069999999         0.0797875336          -29.0088419      4.60159194e-005           -65.694968         0.0426671805   -54.63574189999999

!
           190000000         0.0186758441          -93.5641945       0.000134606918   -58.04091930000001         0.0854957428          -41.4275075      1.79055133e-005    34.89453279999999
      0.000134606918   -58.04091930000001         0.0274259481          -63.5164607       0.000269639541   -62.40450780000001         0.0703751832          -34.2847373
        0.0854957428          -41.4275075       0.000269639541   -62.40450780000001         0.0219840988   -80.02565730000001 5.082645620000001e-005          -75.2521182
     1.79055133e-005    34.89453279999999         0.0703751832          -34.2847373 5.082645620000001e-005          -75.2521182         0.0304104926          -65.4183985

!
           200000000         0.0133985135          -150.198368        0.00014001928           -65.440021         0.0753334967          -48.3558784      1.67914454e-005           14.5768641
       0.00014001928           -65.440021         0.0139462465          -81.7308515       0.000279625512          -69.9391578         0.0596874174          -38.7636189
        0.0753334967          -48.3558784       0.000279625512          -69.9391578         0.0123854208          -123.268498      5.58658046e-005          -84.8512801
     1.67914454e-005           14.5768641         0.0596874174          -38.7636189      5.58658046e-005          -84.8512801         0.0172445848   -83.42585889999999

!
           210000000         0.0214903901            156.80383       0.000145274754          -72.8292818         0.0638817859          -55.2684119      1.61415361e-005          -8.21807469
      0.000145274754          -72.8292818 0.005916732480000001          -179.782843       0.000289208916          -77.4374132  0.04797465220000001   -41.72440000000001
        0.0638817859          -55.2684119       0.000289208916          -77.4374132         0.0156954971           164.923596      6.10991062e-005          -94.4833587
     1.61415361e-005          -8.21807469  0.04797465220000001   -41.72440000000001      6.10991062e-005          -94.4833587        0.00735007083          -151.500819

!
           220000000         0.0360488078           133.295972       0.000150358944          -80.2076883  0.05130357910000001          -62.1184986      1.62885543e-005          -32.8046842
      0.000150358944          -80.2076883         0.0194877535           123.440443       0.000298387388          -84.8965705         0.0356877875          -41.3987227
 0.05130357910000001          -62.1184986       0.000298387388          -84.8965705         0.0294490116           134.001413       6.6484183e-005          -104.135986
     1.62885543e-005          -32.8046842         0.0356877875          -41.3987227       6.6484183e-005          -104.135986         0.0173678007           132.983142

!
           230000000         0.0527090574           119.341257       0.000155257658          -87.5717291         0.0377924917            -68.80001      1.74758574e-005   -57.52514350000001
      0.000155257658          -87.5717291          0.036283579           108.975289       0.000307164576          -92.3126175         0.0239333907           -32.573899
        0.0377924917            -68.80001       0.000307164576          -92.3126175         0.0458704285           118.656466 7.197305779999999e-005          -113.793792
     1.74758574e-005   -57.52514350000001         0.0239333907           -32.573899 7.197305779999999e-005          -113.793792          0.033606233           113.670076

!
           240000000         0.0704084581           108.680591       0.000159959614          -94.9156914         0.0235699252   -74.96971390000002      1.97403457e-005          -80.6359934
      0.000159959614          -94.9156914         0.0539094788    99.20730570000002       0.000315553598          -99.6806392         0.0165888046          -1.65248256
        0.0235699252   -74.96971390000002       0.000315553598          -99.6806392         0.0633998021           107.674259      7.75141759e-005           -123.43887
     1.97403457e-005          -80.6359934         0.0165888046          -1.65248256      7.75141759e-005           -123.43887         0.0509932014           102.372559

!
           250000000         0.0886737839           99.4775722       0.000164459204          -102.232206 0.008894990429999999          -78.0826416      2.29391159e-005          -101.300552
      0.000164459204          -102.232206         0.0719499037           90.7963942       0.000323579995           -106.99537         0.0207840359           37.9749371
0.008894990429999999          -78.0826416       0.000323579995           -106.99537  0.08151020069999999           98.4046063 8.305518180000001e-005          -133.051455
     2.29391159e-005          -101.300552         0.0207840359           37.9749371 8.305518180000001e-005          -133.051455  0.06888207130000001           93.2465266

!
           260000000          0.107164294    91.04550329999999       0.000168758939          -109.513003 0.006175288619999999           79.5330402      2.68655727e-005          -119.576959
      0.000168758939          -109.513003         0.0901052478           82.9684924       0.000331283704          -114.251843         0.0326341184           52.8532966
0.006175288619999999           79.5330402       0.000331283704          -114.251843          0.099854295           89.9777746      8.85459891e-005          -142.610762
     2.68655727e-005          -119.576959         0.0326341184           52.8532966      8.85459891e-005          -142.610762         0.0869269971           85.0136625

!
           270000000          0.125584382    83.08034309999999       0.000172871224          -116.749813          0.021042341           79.0299267      3.13293888e-005          -135.896541
      0.000172871224          -116.749813           0.10810244    75.45886800000001       0.000338719704          -121.446068         0.0465301085    55.38301869999999
         0.021042341           79.0299267       0.000338719704          -121.446068          0.118136381           82.0375918      9.39418092e-005          -152.095926
     3.13293888e-005          -135.896541         0.0465301085    55.38301869999999      9.39418092e-005          -152.095926           0.10483984    77.24851289999999

!
           280000000           0.14366573           75.4318608       0.000176819167          -123.935301         0.0357002961           73.2608647      3.61791839e-005          -150.713862
      0.000176819167          -123.935301          0.125688182           68.1579084        0.00034595716          -128.575655  0.06077510069999999    53.42440079999999
        0.0357002961           73.2608647        0.00034595716          -128.575655          0.136088514    74.41686350000001      9.92057955e-005           -161.48697
     3.61791839e-005          -150.713862  0.06077510069999999    53.42440079999999      9.92057955e-005           -161.48697          0.122360725    69.77537100000001

!
           290000000          0.161166407    68.02008290000001       0.000180636331          -131.063948         0.0498902927    66.93602730000001      4.12995032e-005          -164.392505
      0.000180636331          -131.063948           0.14263315           61.0151093 0.0003530772090000001          -135.640304         0.0747469544    49.53537540000001
        0.0498902927    66.93602730000001 0.0003530772090000001          -135.640304           0.15346857           67.0298213       0.000104311022          -170.765693
     4.12995032e-005          -164.392505         0.0747469544    49.53537540000001       0.000104311022          -170.765693          0.139256679           62.5118374

!
           300000000           0.17787383           60.7998618       0.000184365483          -138.132762  0.06341579610000001    60.50710779999999      4.66028959e-005          -177.198253
      0.000184365483          -138.132762          0.158736893           54.0053486       0.000360169674          -142.642114         0.0881097299    44.69355439999999
 0.06341579610000001    60.50710779999999       0.000360169674          -142.642114          0.170063136    59.82945469999999        0.00010924163          -179.916418
     4.66028959e-005          -177.198253         0.0881097299    44.69355439999999        0.00010924163          -179.916418          0.155324761           55.4156305

!
           310000000          0.193607444    53.74409189999999       0.000188056552          -145.141772  0.07611337730000001            54.097865      5.20233481e-005           170.679186
      0.000188056552          -145.141772          0.173830962    47.11486430000001       0.000367329218           -149.58569          0.100641331           39.3411884
 0.07611337730000001            54.097865       0.000367329218           -149.58569          0.185690289           52.7882486       0.000113993114           171.073446
     5.20233481e-005           170.679186          0.100641331           39.3411884       0.000113993114           171.073446          0.170394529           48.4630152

!
           320000000          0.208219686           46.8351075       0.000191764108          -152.094269         0.0878522236           47.7574265      5.75116562e-005           159.103565
      0.000191764108          -152.094269          0.187779643           40.3347455       0.000374651418          -156.478042          0.112184381    33.70386970000001
        0.0878522236           47.7574265       0.000374651418          -156.478042          0.200200722    45.88865570000001       0.000118571848           162.213055
     5.75116562e-005           159.103565          0.112184381    33.70386970000001       0.000118571848           162.213055          0.184328536           41.6389551

!
           330000000          0.221594962            40.060052       0.000195544657          -158.996797  0.09853290739999999    41.50852789999999      6.30321149e-005           147.974855
      0.000195544657          -158.996797          0.200478479    33.65772379999999       0.000382229171          -163.328331          0.122627117           27.9059428
 0.09853290739999999    41.50852789999999       0.000382229171          -163.328331          0.213476867           39.1181011       0.000122994022           153.507972
     6.30321149e-005           147.974855          0.122627117           27.9059428       0.000122994022           153.507972          0.197020758            34.932275

!
           340000000          0.233646922           33.4083382       0.000199454037          -165.858931          0.108084465           35.3615186        6.855994e-005           137.217337
      0.000199454037          -165.858931          0.211851053           27.0765786       0.000390149724          -170.147506          0.131892814           22.0187281
         0.108084465           35.3615186       0.000390149724          -170.147506          0.225430298    32.46629459999999       0.000127284201            144.96017
       6.855994e-005           137.217337          0.131892814           22.0187281       0.000127284201            144.96017           0.20839337           28.3332084

!
           350000000          0.244314536           26.8702779       0.000203545066          -172.692897          0.116460216    29.31970619999999      7.40790914e-005           126.771672
      0.000203545066          -172.692897          0.221844684           20.5833926        0.00039849241          -176.947884          0.139931951           16.0831207
         0.116460216    29.31970619999999        0.00039849241          -176.947884          0.235997926           25.9238022       0.000131473708           136.568158
     7.40790914e-005           126.771672          0.139931951           16.0831207       0.000131473708           136.568158          0.218392445           21.8321765

!
           360000000          0.253557559           20.4363902       0.000207865552          -179.513079           0.12363292           23.3819332      7.95803402e-005           116.589695
      0.000207865552          -179.513079          0.230425627           14.1692759       0.000407327054           176.257262          0.146715551           10.1212283
          0.12363292           23.3819332       0.000407327054           176.257262          0.245137537           19.4813329       0.000135598969           128.327174
     7.95803402e-005           116.589695          0.146715551           10.1212283       0.000135598969           128.327174          0.226983173           15.4192338

!
           370000000          0.261351882           14.0971146       0.000212456653           173.664523          0.129589833           17.5441213      8.50595214e-005           106.631005
      0.000212456653           173.664523          0.237574297    7.824348259999999       0.000416712881           169.454095          0.152229337           4.14285593
         0.129589833           17.5441213       0.000416712881           169.454095           0.25282321           13.1294451       0.000139699924           120.229422
     8.50595214e-005           106.631005          0.152229337           4.14285593       0.000139699924           120.229422          0.234145099    9.083885200000001

!
           380000000          0.267685166    7.842762210000001       0.000217351526           166.822854          0.134328103            11.800392      9.05159545e-005    96.86071819999999
      0.000217351526           166.822854          0.243280883           1.53786197       0.000426697727           162.628544          0.156468737          -1.85063588
         0.134328103            11.800392       0.000426697727           162.628544           0.25904099           6.85849728       0.000143818514            112.26432
     9.05159545e-005    96.86071819999999          0.156468737          -1.85063588       0.000143818514            112.26432           0.23986775    2.815109689999999

!
           390000000          0.272553029           1.66361046       0.000222574201           159.944334          0.137850802    6.144007469999999 9.595102000000001e-005           87.2479786
      0.000222574201           159.944334          0.247541585          -4.70160418        0.00043731732           155.766578          0.159434811          -7.86391861
         0.137850802    6.144007469999999        0.00043731732           155.766578          0.263785104          0.658744199       0.000147997252           104.418743