! Tyco Electronics Strada Whisper System
! NEXT_F89_G1112
!! 
!! SYSTEM DESCRIPTION: Daughtercard-Footprint-Connector-Footprint-Daughtercard
!! PCB DESCRIPTION: DC: 140mil, Megtron7N, upper layer route, 15mil stub, 6-6-6mil 4" traces
!! CONNECTOR DESCRIPTION: Next-Gen STRADA Whisper Direct-Plug Orthogonal Connector
!! MODEL DESCRIPTION: Tyco Electronics System 4-port S-parameter 
!! MODEL STATUS: Developmental
!! MODEL GEOMETRY: Channel Model
!! MODEL FREQUENCY RANGE: DC to 60 GHz in 10 MHz frequency steps
!! MODEL EDGE RATE LIMITATION: 8.3 ps (Using conservative 0.5/Fmax rule of thumb)
!! 
!! TIME-DOMAIN TRANSFORM CAUTIONS: 
!! 1.) Do not simulate transient edge rates faster than the number listed above.  Edge rates faster than this number 
!!     contain significant spectral content at frequencies above the model's highest frequency. 
!! 2.) Even when simulating edge rates that are slower than the number listed above, be aware that the best time 
!!     resolution possible with a direct iFFT is (1 / 2Fmax).  As a result, time resolution is typically not adequate 
!!     for most time-domain simulations unless tricks such as windowing are used to minimize leakage and aliasing. 
!! 3.) Because the model has a uniform frequency step, a direct iFFT will result in an impulse that that has a time 
!!     length given by either (1 / Fstep) or (1 / 2Fstep), depending on the transform being used.  Care has been taken 
!!     in selecting the frequency step to ensure a settled impulse response for the model.  Therefore, convolution with 
!!     the model's impulse response should present no issues.  However, if directly concatenating s-parameter models 
!!     in the frequency domain a user must either interpolate necessary interim frequencies or complete impulse response 
!!     zero-padding.  Impulse response zero-padding is more difficult, but more accurate. 
!! 
!! PORT DEFINITIONS: 
!! Port   1  ----->  RX Side	F8     G11     RX Side  <-----  Port   3
!! Port   2  ----->  RX Side	F9     G12     RX Side  <-----  Port   4
!! 
!!!!!!!!!!!!!!!!!!!!!!!!!!!!!!!!!!!!!!!!!!!!!!!!!!!!!!!!!!!!!!!!!!!!!!!!!!!!!!!!!!!!!!!!!!!!!!!!!!!!!!!!!!!!!!!!!!!!!!!!
! Touchstone data
! Created: 10-Dec-2018 by IdEM R2012 (8.0.5)
# Hz S MA R 50

!
                   0         0.0279146007                    0      1.07377604e-006                    0        0.00179932528                    0      6.22952158e-007                    0
     1.07377604e-006                    0         0.0245795381                    0      1.93727005e-006                    0         0.0014519182                    0
       0.00179932528                    0      1.93727005e-006                    0         0.0281770468                    0      1.23860223e-006                    0
     6.22952158e-007                    0         0.0014519182                    0      1.23860223e-006                    0          0.024769526                    0

!
            10000000          0.030181518           12.8789761       4.0809388e-006    66.03769090000002         0.0138943846           75.5837224      3.37872175e-006          -85.8247136
      4.0809388e-006    66.03769090000002         0.0273123644           16.7615353      3.87862007e-005            80.339179         0.0134504245           77.1744301
        0.0138943846           75.5837224      3.87862007e-005            80.339179         0.0305618113           13.3732249      9.54089879e-006           75.5843567
     3.37872175e-006          -85.8247136         0.0134504245           77.1744301      9.54089879e-006           75.5843567         0.0276572676           17.3919101

!
            20000000         0.0350988025            21.252345 7.943454560000001e-006           64.8319802         0.0273724407           72.3302113      6.64868159e-006   -97.48821510000002
7.943454560000001e-006           64.8319802         0.0332413539           26.9197636      7.74967643e-005           74.9744018         0.0265720486           73.6631239
        0.0273724407           72.3302113      7.74967643e-005           74.9744018         0.0357651214           21.9770695       1.9044812e-005    72.33201579999999
     6.64868159e-006   -97.48821510000002         0.0265720486           73.6631239       1.9044812e-005    72.33201579999999         0.0339387425           27.7646301

!
            30000000         0.0414082147            24.985279      1.18514163e-005    58.76728210000001         0.0404471367           66.6467543      9.90041734e-006          -105.653742
     1.18514163e-005    58.76728210000001         0.0406863279           31.1380743       0.000116255462           68.6562551         0.0393364653           68.1260977
        0.0404471367           66.6467543       0.000116255462           68.6562551           0.04243229            25.746934      2.87405193e-005    66.57276570000001
     9.90041734e-006          -105.653742         0.0393364653           68.1260977      2.87405193e-005    66.57276570000001         0.0418002812           31.9659098

!
            40000000  0.04812421570000001           25.3835754      1.57776165e-005           51.5035506          0.052895306           60.3712229      1.31039474e-005          -112.909959
     1.57776165e-005           51.5035506          0.048545722           31.6051584       0.000155088415    62.09551840000001         0.0515567493    62.10025640000001
         0.052895306           60.3712229       0.000155088415    62.09551840000001         0.0495285072           26.1056193 3.868793610000001e-005    60.13780060000001
     1.31039474e-005          -112.909959         0.0515567493    62.10025640000001 3.868793610000001e-005    60.13780060000001  0.05008947009999999           32.3535203

!
            50000000         0.0546073046           23.6120551       1.9728942e-005           43.8160117         0.0645318844           53.8778973      1.62398288e-005          -119.778971
      1.9728942e-005           43.8160117         0.0561941266           29.8420985       0.000194036475           55.4313504         0.0630741075           55.8983205
        0.0645318844           53.8778973       0.000194036475           55.4313504  0.05639619790000001           24.2746767      4.89613852e-005           53.3849577
     1.62398288e-005          -119.778971         0.0630741075           55.8983205      4.89613852e-005           53.3849577         0.0581672254           30.5060227

!
            60000000         0.0604404556           20.4369998      2.37249626e-005    35.96903669999999         0.0751937741           47.2929499      1.92897432e-005            -126.4279
     2.37249626e-005    35.96903669999999  0.06325277310000001           26.7216857       0.000233147294    48.70668739999999  0.07374768969999999            49.626154
        0.0751937741           47.2929499       0.000233147294    48.70668739999999         0.0626123213            21.040385      5.96357776e-005    46.42444170000001
     1.92897432e-005            -126.4279  0.07374768969999999            49.626154      5.96357776e-005    46.42444170000001  0.06565161830000001           27.3099977

!
            70000000         0.0653367797           16.3311571      2.77952962e-005           28.0729291         0.0847384068           40.6701971      2.22352786e-005          -132.919115
     2.77952962e-005           28.0729291         0.0694693726           22.7408847       0.000272472762           41.9361865         0.0834540053           43.3292432
        0.0847384068           40.6701971       0.000272472762           41.9361865  0.06788814359999999           16.8811741      7.07841226e-005           39.2961803
     2.22352786e-005          -132.919115         0.0834540053           43.3292432      7.07841226e-005           39.2961803  0.07228998859999999            23.263656

!
            80000000  0.06908937950000001           11.5859898       3.1978803e-005            20.174051         0.0930430557    34.03529649999999      2.50580308e-005           -139.27256
      3.1978803e-005            20.174051  0.07466369600000002           18.1924797       0.000312065857           35.1232469         0.0920865867           37.0294361
        0.0930430557    34.03529649999999       0.000312065857           35.1232469         0.0720164018           12.0893145       8.2476329e-005           32.0143193
     2.50580308e-005           -139.27256         0.0920865867           37.0294361       8.2476329e-005           32.0143193  0.07790250059999999            18.657908

!
            90000000  0.07154479060000001    6.383330970000001 3.632257070000001e-005           12.2851261          0.100003665           27.4007196      2.77403763e-005          -145.485925
3.632257070000001e-005           12.2851261         0.0787018072           13.2556979       0.000351976339           28.2657806  0.09955508740000001           30.7373273
         0.100003665           27.4007196       0.000351976339           28.2657806  0.07484381649999999    6.845983260000001      9.47780836e-005           24.5820557
     2.77403763e-005          -145.485925  0.09955508740000001           30.7373273      9.47780836e-005           24.5820557         0.0823558194           13.6695711

!
           100000000         0.0725880325          0.836804716 4.088023909999999e-005    4.397976020000001          0.105533299           20.7720467      3.02669417e-005          -151.542153
4.088023909999999e-005    4.397976020000001         0.0814825094    8.043719879999999       0.000392245294           21.3586543          0.105783911           24.4574017
         0.105533299           20.7720467       0.000392245294           21.3586543         0.0762557831           1.26389885       0.000107749477           16.9975582
     3.02669417e-005          -151.542153          0.105783911           24.4574017       0.000107749477           16.9975582  0.08554937709999999    8.409497790000001

!
           110000000         0.0721335142   -4.984828989999999       4.5709538e-005          -3.50963731          0.109560557           14.1511906      3.26269289e-005          -157.412573
      4.5709538e-005          -3.50963731  0.08292930079999999           2.62944453       0.000432898631    14.39495690000001          0.110710631           18.1906012
         0.109560557           14.1511906       0.000432898631    14.39495690000001         0.0761671073          -4.58884073       0.000121443208    9.256661249999999
     3.26269289e-005          -157.412573          0.110710631           18.1906012       0.000121443208    9.256661249999999         0.0874072459           2.94839177

!
           120000000  0.07011924880000001          -11.0451208 5.086903529999999e-005          -11.4692041          0.112028307    7.538428599999999       3.4817489e-005          -163.058708
5.086903529999999e-005          -11.4692041         0.0829851097           -2.9399217        0.00047393968    7.366805640000001          0.114284488           11.9358647
         0.112028307    7.538428599999999        0.00047393968    7.366805640000001          0.074516113          -10.6758451       0.000135902251           1.35424847
      3.4817489e-005          -163.058708          0.114284488           11.9358647       0.000135902251           1.35424847         0.0878728136          -2.66872139

!
           130000000         0.0665033142          -17.3348112      5.64141757e-005          -19.5173457          0.112893054   0.9339891379999998      3.68482829e-005          -168.434431
     5.64141757e-005          -19.5173457         0.0816086981   -8.634255200000002       0.000515341111           0.26596342          0.116465204           5.69124051
         0.112893054   0.9339891379999998       0.000515341111           0.26596342  0.07126101980000001            -16.98671       0.000151156903   -6.714928389999999
     3.68482829e-005          -168.434431          0.116465204           5.69124051       0.000151156903   -6.714928389999999  0.08690513160000001          -8.41407721

!
           140000000         0.0612621941          -23.8740398      6.23927655e-005          -27.6920052          0.112125149          -5.66043423      3.87471803e-005          -173.489903
     6.23927655e-005          -27.6920052  0.07877228980000001           -14.435287 0.0005570364510000001          -6.91561468          0.117222331         -0.545158789
         0.112125149          -5.66043423 0.0005570364510000001          -6.91561468         0.0663782025          -23.5377737       0.000167221206          -14.9556677
     3.87471803e-005          -173.489903          0.117222331         -0.545158789       0.000167221206          -14.9556677         0.0844764927          -14.2722128

!
           150000000         0.0543910436          -30.7266001      6.88401185e-005          -36.0289796          0.109709975          -12.2399742      4.05666357e-005          -178.178783
     6.88401185e-005          -36.0289796         0.0744602558          -20.3334657       0.000598911658          -14.1852513          0.116535232   -6.774206810000001
         0.109709975          -12.2399742       0.000598911658          -14.1852513         0.0598623378           -30.382325       0.000184088787          -23.3718197
     4.05666357e-005          -178.178783          0.116535232   -6.774206810000001       0.000184088787          -23.3718197  0.08057107249999999          -20.2372332

!
           160000000         0.0459065347          -38.0442147 7.577413620000001e-005          -44.5589618          0.105650118          -18.7943727      4.23895385e-005           177.529953
7.577413620000001e-005          -44.5589618         0.0686687818          -26.3263853       0.000640797412          -21.5490086          0.114393803          -12.9946958
         0.105650118          -18.7943727       0.000640797412          -21.5490086         0.0517289192          -37.6418583       0.000201728329          -31.9657983
     4.23895385e-005           177.529953          0.114393803          -12.9946958       0.000201728329          -31.9657983  0.07518457169999998          -26.3119061

!
           170000000         0.0358551937   -46.21239740000001      8.31906497e-005          -53.3052476         0.0999684354            -25.30474      4.43322803e-005           173.635422
     8.31906497e-005          -53.3052476  0.06140646100000001          -32.4189428       0.000682463039          -29.0111371          0.110799913          -19.2019998
        0.0999684354            -25.30474       0.000682463039          -29.0111371         0.0420211217          -45.6002457       0.000220078974          -40.7380755
     4.43322803e-005           173.635422          0.110799913          -19.2019998       0.000220078974          -40.7380755          0.068324815          -32.5090148

!
           180000000         0.0243438148          -56.4847198      9.10594149e-005          -62.2821776  0.09271184120000001          -31.7382758      4.65417669e-005           170.086234
     9.10594149e-005          -62.2821776         0.0526957249   -38.62667190000001 0.0007236132620000001          -36.5735223            0.1057695           -25.386229
 0.09271184120000001          -31.7382758 0.0007236132620000001          -36.5735223         0.0308304718   -55.04902100000001       0.000239046193          -49.6866605
     4.65417669e-005           170.086234            0.1057695           -25.386229       0.000239046193          -49.6866605  0.06001325599999999          -38.8569758

!
           190000000         0.0117691508          -76.0334735      9.93212262e-005   -71.49428949999999         0.0839555749          -38.0387156      4.91831003e-005           166.767157
     9.93212262e-005   -71.49428949999999         0.0425749905          -44.9879169 0.0007638891270000001          -44.2351555  0.09933522760000001          -31.5294288
        0.0839555749          -38.0387156 0.0007638891270000001          -44.2351555         0.0183998687   -69.18633180000001       0.000258498789          -58.8065861
     4.91831003e-005           166.767157  0.09933522760000001          -31.5294288       0.000258498789          -58.8065861         0.0502873574          -45.4164395

!
           200000000        0.00618385085           173.958989       0.000107886673          -80.9360866  0.07380787110000001          -44.1070516      5.24169274e-005           163.501402
      0.000107886673          -80.9360866         0.0311014624          -51.6107373       0.000802874456          -51.9916718  0.09154948590000001          -37.6009195
 0.07380787110000001          -44.1070516       0.000802874456          -51.9916718 0.006652534550000001          -118.044586 0.0002782678250000001   -68.08944870000001
     5.24169274e-005           163.501402  0.09154948590000001          -37.6009195 0.0002782678250000001   -68.08944870000001         0.0392040829          -52.3334785

!
           210000000         0.0201200487           129.102379       0.000116637078   -90.59231010000001         0.0624156511           -49.757559      5.63701911e-005           160.075241
      0.000116637078   -90.59231010000001         0.0183555775           -58.939827       0.000840108889           -59.835007          0.082487599          -43.5487758
        0.0624156511           -49.757559       0.000840108889           -59.835007          0.013461537           141.187333       0.000298148316          -77.5230566
     5.63701911e-005           160.075241          0.082487599          -43.5487758       0.000298148316          -77.5230566         0.0268466463   -60.06217199999999

!
           220000000         0.0366223475           115.913713       0.000125428048           -100.43861  0.04997466390000001          -54.6011307 6.110872429999999e-005            156.27983
      0.000125428048           -100.43861         0.0044827509          -73.2578109       0.000875107906          -67.7532341  0.07225119189999998          -49.2825873
 0.04997466390000001          -54.6011307       0.000875107906          -67.7532341         0.0292281239           120.322365       0.000317904318          -87.0912503
6.110872429999999e-005            156.27983  0.07225119189999998          -49.2825873       0.000317904318          -87.0912503          0.013358171          -71.0393856

!
           230000000         0.0541444688           106.572385       0.000134095875          -110.442538         0.0367600802          -57.6646028      6.66207534e-005             151.9532
      0.000134095875          -110.442538         0.0106068212           115.318161       0.000907389212          -75.7306322         0.0609722968   -54.63428410000001
        0.0367600802          -57.6646028       0.000907389212          -75.7306322  0.04637884530000001           109.206809       0.000337277748   -96.77395460000001
     6.66207534e-005             151.9532         0.0609722968   -54.63428410000001       0.000337277748   -96.77395460000001        0.00258120638           167.380096

!
           240000000         0.0723421918    98.37962600000002       0.000142466601          -120.564814         0.0232725988          -55.6926534      7.28157373e-005           147.005088
      0.000142466601          -120.564814         0.0264730735           106.216898         0.0009365036          -83.7480278         0.0488209969   -59.25508980000001
        0.0232725988          -55.6926534         0.0009365036          -83.7480278  0.06429043339999999           100.306569 0.0003560006909999999          -106.547503
     7.28157373e-005           147.005088         0.0488209969   -59.25508980000001 0.0003560006909999999          -106.547503         0.0171559237           112.419614

!
           250000000         0.0909404062           90.6767929       0.000150367141          -130.760817         0.0114739472   -31.50463530000001 7.953666500000001e-005           141.418903
      0.000150367141          -130.760817         0.0430844953    99.05048630000002       0.000962067227   -91.78341519999999         0.0360290834          -62.2837676
        0.0114739472   -31.50463530000001       0.000962067227   -91.78341519999999  0.08264662740000001    92.24069230000001       0.000373810301          -116.385245
7.953666500000001e-005           141.418903         0.0360290834          -62.2837676       0.000373810301          -116.385245         0.0334108088           102.452308

!
           260000000          0.109671548    83.23363569999999        0.00015763738          -140.982252         0.0125805647    38.08876229999999 8.658037959999999e-005           135.237276
       0.00015763738          -140.982252         0.0602379797             92.22912 0.0009837913819999999   -99.81283360000001         0.0230015971           -60.892566
        0.0125805647    38.08876229999999 0.0009837913819999999   -99.81283360000001          0.101168675           84.5827743       0.000390464812          -126.258419
8.658037959999999e-005           135.237276         0.0230015971           -60.892566       0.000390464812          -126.258419         0.0502715628           94.7082344

!
           270000000          0.128272898            75.954827       0.000164141863          -151.178926  0.02508552840000001    57.50886700000001      9.37205473e-005            128.54171
      0.000164141863          -151.178926         0.0777256086           85.5255878        0.00100150575          -107.811433         0.0112431339          -40.1080049
 0.02508552840000001    57.50886700000001        0.00100150575          -107.811433          0.119589334    77.16518820000002       0.000405758747          -136.137213
     9.37205473e-005            128.54171         0.0112431339          -40.1080049       0.000405758747          -136.137213         0.0675029806             87.55501

!
           280000000          0.146493122            68.797883       0.000169779642          -161.300536         0.0390358916           58.7151897       0.000100729619           121.433938
      0.000169779642          -161.300536         0.0953325676           78.8809784        0.00101517188          -115.754637         0.0108971307    32.92165039999999
        0.0390358916           58.7151897        0.00101517188          -115.754637           0.13765445           69.9133339 0.0004195354109999999           -145.99194
      0.000100729619           121.433938         0.0108971307    32.92165039999999 0.0004195354109999999           -145.99194  0.08488512719999999           80.6478284

!
           290000000          0.164100046    61.74360660000001       0.000174491089          -171.298375         0.0528714262           55.6206102       0.000107397728           114.022147
      0.000174491089          -171.298375          0.112843551           72.2790615        0.00102488501          -123.619296         0.0226182572           55.5332321
        0.0528714262           55.6206102        0.00102488501          -123.619296          0.155129308           62.7918394       0.000431695114          -155.794195
      0.000107397728           114.022147         0.0226182572           55.5332321       0.000431695114          -155.794195          0.102200874    73.87608299999999

!
           300000000          0.180887213           54.7834552       0.000178261006            178.87314         0.0661619435           50.9980987       0.000113547442           106.412127
      0.000178261006            178.87314          0.130049974           65.7180764        0.00103086442          -131.384721         0.0358820925           57.3853935
        0.0661619435           50.9980987        0.00103086442          -131.384721          0.171804754           55.7832598       0.000442198248          -165.517907
      0.000113547442           106.412127         0.0358820925           57.3853935       0.000442198248          -165.517907          0.119240212           67.1981081

!
           310000000          0.196678193           47.9134625       0.000181117948           169.255176  0.07867382370000001           45.7091578       0.000119043877    98.70224550000002
      0.000181117948           169.255176          0.146756677            59.201597        0.00103343405          -139.033513         0.0490767142           54.6613445
 0.07867382370000001           45.7091578        0.00103343405          -139.033513          0.187501412           48.8784073        0.00045106323          -175.140186
      0.000119043877    98.70224550000002         0.0490767142           54.6613445        0.00045106323          -175.140186          0.135806256    60.59781730000001

!
           320000000          0.211328351            41.131098       0.000183130299           159.883479         0.0902484623           40.1040538       0.000123800164    90.98097559999999
      0.000183130299           159.883479           0.16278741    52.73477800000001        0.00103299657          -146.552139         0.0618040162           50.3523749
        0.0902484623           40.1040538        0.00103299657          -146.552139          0.202071512           42.0715512        0.00045836004           175.358089
      0.000123800164    90.98097559999999         0.0618040162           50.3523749        0.00045836004           175.358089          0.151720559           54.0696248

!
           330000000           0.22472423           34.4336113       0.000184400003           150.787625          0.100773431           34.3498363       0.000127778706    83.32596270000001
      0.000184400003           150.787625          0.177988621    46.32254869999999        0.00103000454          -153.931226         0.0738534523           45.3536813
         0.100773431           34.3498363        0.00103000454          -153.931226          0.215398384           35.3579279 0.0004642006820000001           165.991943
      0.000127778706    83.32596270000001         0.0738534523           45.3536813 0.0004642006820000001           165.991943          0.166826933           47.6121493

!
           340000000          0.236781037           27.8171973       0.000185055036           141.990507          0.110170894             28.53379       0.000130989017           75.8039158
      0.000185055036           141.990507          0.192231414           39.9686765        0.00102493217          -161.165612         0.0850802239    40.02248920000001
         0.110170894             28.53379        0.00102493217          -161.165612          0.227394067           28.7324596       0.000468728036           156.772251
      0.000130989017           75.8039158         0.0850802239    40.02248920000001       0.000468728036           156.772251          0.180993501           41.2252537

!
           350000000          0.247438837           21.2766425       0.000185241633           133.507971          0.118390072           22.7032357       0.000133483138    68.47082930000001
      0.000185241633           133.507971          0.205411729    33.67529380000001        0.00101825015          -168.254162  0.09537837020000001           34.5280212
         0.118390072           22.7032357        0.00101825015          -168.254162          0.237995619           22.1891478       0.000472104531           147.705888
      0.000133483138    68.47082930000001  0.09537837020000001           34.5280212       0.000472104531           147.705888          0.194113019           34.9085701

!
           360000000          0.256658073           14.8052548       0.000185117015           125.348543          0.125400883           16.8832499       0.000135349596           61.3721986
      0.000185117015           125.348543          0.217449045           27.4427076        0.00101040539          -175.199433          0.104671065           28.9591962
         0.125400883           16.8832499        0.00101040539          -175.199433           0.24716073           15.7208576       0.000474501728           138.796045
      0.000135349596           61.3721986          0.104671065           28.9591962       0.000474501728           138.796045          0.206101713           28.6607746

!
           370000000          0.264414942           8.39495951       0.000184843078           117.513186          0.131188216            11.085531       0.000136706735           54.5429934
      0.000184843078           117.513186          0.228283981           21.2693904        0.00100180616           177.992774          0.112904918           23.3653434
         0.131188216            11.085531        0.00100180616           177.992774          0.254863174    9.319325480000002       0.000476091526           130.042647
      0.000136706735           54.5429934          0.112904918           23.3653434       0.000476091526           130.042647          0.216897012    22.47927620000001

!
           380000000   0.2706970439999999           2.03648221       0.000184581178           109.995059           0.13574687           5.31330123       0.000137695914    48.00724590000001
      0.000184581178           109.995059          0.237875223           15.1520895       0.000992812443           171.313914          0.120045334            17.774047
          0.13574687           5.31330123       0.000992812443           171.313914          0.261088501           2.97529183       0.000477039289           121.442821
      0.000137695914    48.00724590000001          0.120045334            17.774047       0.000477039289           121.442821          0.226454577           16.3601494

!
           390000000          0.275499553   -4.280428200000001       0.000184487894           102.779309          0.139077298  -0.4357305060000001       0.000138474801           41.7772143
      0.000184487894           102.779309          0.246196156           9.08600803       0.000983730844           164.753212          0.126072294            12.199932
         0.139077298  -0.4357305060000001       0.000983730844           164.753212           0.26583025          -3.32130311       0.000477498901           112.991367