! Tyco Electronics Strada Whisper System
! NEXT_F1415_G1112
!! 
!! SYSTEM DESCRIPTION: Daughtercard-Footprint-Connector-Footprint-Daughtercard
!! PCB DESCRIPTION: DC: 140mil, Megtron7N, upper layer route, 15mil stub, 6-6-6mil 4" traces
!! CONNECTOR DESCRIPTION: Next-Gen STRADA Whisper Direct-Plug Orthogonal Connector
!! MODEL DESCRIPTION: Tyco Electronics System 4-port S-parameter 
!! MODEL STATUS: Developmental
!! MODEL GEOMETRY: Channel Model
!! MODEL FREQUENCY RANGE: DC to 60 GHz in 10 MHz frequency steps
!! MODEL EDGE RATE LIMITATION: 8.3 ps (Using conservative 0.5/Fmax rule of thumb)
!! 
!! TIME-DOMAIN TRANSFORM CAUTIONS: 
!! 1.) Do not simulate transient edge rates faster than the number listed above.  Edge rates faster than this number 
!!     contain significant spectral content at frequencies above the model's highest frequency. 
!! 2.) Even when simulating edge rates that are slower than the number listed above, be aware that the best time 
!!     resolution possible with a direct iFFT is (1 / 2Fmax).  As a result, time resolution is typically not adequate 
!!     for most time-domain simulations unless tricks such as windowing are used to minimize leakage and aliasing. 
!! 3.) Because the model has a uniform frequency step, a direct iFFT will result in an impulse that that has a time 
!!     length given by either (1 / Fstep) or (1 / 2Fstep), depending on the transform being used.  Care has been taken 
!!     in selecting the frequency step to ensure a settled impulse response for the model.  Therefore, convolution with 
!!     the model's impulse response should present no issues.  However, if directly concatenating s-parameter models 
!!     in the frequency domain a user must either interpolate necessary interim frequencies or complete impulse response 
!!     zero-padding.  Impulse response zero-padding is more difficult, but more accurate. 
!! 
!! PORT DEFINITIONS: 
!! Port   1  ----->  RX Side	F14     G11     RX Side  <-----  Port   3
!! Port   2  ----->  RX Side	F15     G12     RX Side  <-----  Port   4
!! 
!!!!!!!!!!!!!!!!!!!!!!!!!!!!!!!!!!!!!!!!!!!!!!!!!!!!!!!!!!!!!!!!!!!!!!!!!!!!!!!!!!!!!!!!!!!!!!!!!!!!!!!!!!!!!!!!!!!!!!!!
! Touchstone data
! Created: 10-Dec-2018 by IdEM R2012 (8.0.5)
# Hz S MA R 50

!
                   0         0.0279146007                    0      1.17542111e-006                    0        0.00179932528                    0      1.80464992e-006                    0
     1.17542111e-006                    0         0.0283576772                    0      7.05627023e-007                    0        0.00202983275                    0
       0.00179932528                    0      7.05627023e-007                    0         0.0281770468                    0      1.11979931e-006                    0
     1.80464992e-006                    0        0.00202983275                    0      1.11979931e-006                    0         0.0287530252                    0

!
            10000000          0.030181518           12.8789761      2.59536678e-006          -67.0915979         0.0138943846           75.5837224      5.43603139e-006   -78.61547779999999
     2.59536678e-006          -67.0915979         0.0306016712           12.7043942      9.98495635e-006   -92.08900559999999          0.013950051           74.7256845
        0.0138943846           75.5837224      9.98495635e-006   -92.08900559999999         0.0305618113           13.3732249      3.76454286e-006    60.86990639999999
     5.43603139e-006   -78.61547779999999          0.013950051           74.7256845      3.76454286e-006    60.86990639999999         0.0310871773           13.0215977

!
            20000000         0.0350988025            21.252345      4.92898817e-006   -84.61071540000002         0.0273724407           72.3302113      1.05098428e-005   -96.13691310000002
     4.92898817e-006   -84.61071540000002         0.0354756269           21.0508834       2.0073452e-005          -100.315648         0.0274413988           71.9920478
        0.0273724407           72.3302113       2.0073452e-005          -100.315648         0.0357651214           21.9770695      7.21217997e-006           57.4144395
     1.05098428e-005   -96.13691310000002         0.0274413988           71.9920478      7.21217997e-006           57.4144395         0.0361854969           21.5224314

!
            30000000         0.0414082147            24.985279      7.63970861e-006          -94.5835122         0.0404471367           66.6467543      1.58687972e-005          -107.585151
     7.63970861e-006          -94.5835122         0.0417519386           24.8624224      3.04483305e-005          -107.297202  0.04054897450000001           66.5290534
        0.0404471367           66.6467543      3.04483305e-005          -107.297202           0.04243229            25.746934      1.06048007e-005           48.4680093
     1.58687972e-005          -107.585151  0.04054897450000001           66.5290534      1.06048007e-005           48.4680093  0.04275080409999999           25.3626009

!
            40000000  0.04812421570000001           25.3835754         1.07753e-005          -102.954534          0.052895306           60.3712229      2.15239521e-005          -117.489538
        1.07753e-005          -102.954534         0.0484575591           25.3821945      4.12244027e-005           -114.08717         0.0530462402           60.3971198
         0.052895306           60.3712229      4.12244027e-005           -114.08717         0.0495285072           26.1056193      1.38572027e-005           38.0819383
     2.15239521e-005          -117.489538         0.0530462402           60.3971198      1.38572027e-005           38.0819383         0.0497717218           25.8581474

!
            50000000         0.0546073046           23.6120551       1.4412199e-005          -111.087856         0.0645318844           53.8778973      2.75384637e-005          -126.832914
      1.4412199e-005          -111.087856         0.0549561054           23.7456775      5.25015836e-005          -120.919069         0.0647505355    54.01678380000001
        0.0645318844           53.8778973      5.25015836e-005          -120.919069  0.05639619790000001           24.2746767      1.69183311e-005           27.1063405
     2.75384637e-005          -126.832914         0.0647505355    54.01678380000001      1.69183311e-005           27.1063405  0.05659638039999999           24.1816536

!
            60000000         0.0604404556           20.4369998      1.86191701e-005          -119.402346         0.0751937741           47.2929499      3.39801234e-005          -135.951554
     1.86191701e-005          -119.402346  0.06083136930000001           20.7099616      6.43594111e-005          -127.880497         0.0755018076    47.52993140000001
        0.0751937741           47.2929499      6.43594111e-005          -127.880497         0.0626123213            21.040385      1.97448761e-005           15.8193831
     3.39801234e-005          -135.951554         0.0755018076    47.52993140000001      1.97448761e-005           15.8193831  0.06280279799999999            21.103722

!
            70000000         0.0653367797           16.3311571      2.34558612e-005          -128.021789         0.0847384068           40.6701971      4.09148035e-005          -144.989141
     2.34558612e-005          -128.021789         0.0657970767           16.7466821 7.685727080000002e-005          -135.011257  0.08516041720000001    40.99729170000001
        0.0847384068           40.6701971 7.685727080000002e-005          -135.011257  0.06788814359999999           16.8811741        2.229683e-005    4.328974210000001
     4.09148035e-005          -144.989141  0.08516041720000001    40.99729170000001        2.229683e-005    4.328974210000001         0.0681026512           17.0998186

!
            80000000  0.06908937950000001           11.5859898      2.89757011e-005          -136.961624         0.0930430557    34.03529649999999 4.840565290000001e-005          -154.014831
     2.89757011e-005          -136.961624  0.06964706530000001           12.1493021 9.003633689999998e-005          -142.329768          0.093606272           34.4481296
        0.0930430557    34.03529649999999 9.003633689999998e-005          -142.329768         0.0720164018           12.0893145      2.45356273e-005   -7.325353519999999
4.840565290000001e-005          -154.014831          0.093606272           34.4481296      2.45356273e-005   -7.325353519999999         0.0722891956           12.4637043

!
            90000000  0.07154479060000001    6.383330970000001      3.52285491e-005           -146.19814          0.100003665           27.4007196      5.65134678e-005          -163.064418
     3.52285491e-005           -146.19814  0.07222863910000001    7.103173430000001       0.000103921906          -149.843492          0.100737605    27.89705070000001
         0.100003665           27.4007196       0.000103921906          -149.843492  0.07484381649999999    6.845983260000001      2.64227455e-005          -19.1388544
     5.65134678e-005          -163.064418          0.100737605    27.89705070000001      2.64227455e-005          -19.1388544         0.0752097519           7.37975496

!
           100000000         0.0725880325          0.836804716       4.2262086e-005           -155.69702          0.105533299           20.7720467       6.5297003e-005          -172.157788
      4.2262086e-005           -155.69702  0.07342746470000001             1.726717       0.000118525219          -157.554254          0.106469397           21.3510165
         0.105533299           20.7720467       0.000118525219          -157.554254         0.0762557831           1.26389885      2.79185091e-005   -31.12907219999999
      6.5297003e-005          -172.157788          0.106469397           21.3510165      2.79185091e-005   -31.12907219999999  0.07675022799999999           1.96490139

!
           110000000         0.0721335142   -4.984828989999999      5.01217813e-005          -165.425124          0.109560557           14.1511906 7.481266890000001e-005           178.692667
     5.01217813e-005          -165.425124         0.0731583053          -3.90478319       0.000133844163           -165.46128          0.110731744           14.8128782
         0.109560557           14.1511906       0.000133844163           -165.46128         0.0761671073          -4.58884073      2.89812095e-005           -43.331783
7.481266890000001e-005           178.692667          0.110731744           14.8128782      2.89812095e-005           -43.331783  0.07682566370000001          -3.70738317

!
           120000000  0.07011924880000001          -11.0451208 5.884948919999999e-005          -175.354755          0.112028307    7.538428599999999 8.511329140000001e-005           169.477778
5.884948919999999e-005          -175.354755         0.0713590169          -9.74551548       0.000149862549          -173.562938          0.113468507    8.283542900000001
         0.112028307    7.538428599999999       0.000149862549          -173.562938          0.074516113          -10.6758451      2.95667849e-005          -55.8017456
8.511329140000001e-005           169.477778          0.113468507    8.283542900000001      2.95667849e-005          -55.8017456         0.0753741143   -9.593456250000001

!
           130000000         0.0665033142          -17.3348112 6.848077270000001e-005           174.535528          0.112893054   0.9339891379999998      9.62457452e-005           160.189505
6.848077270000001e-005           174.535528         0.0679866963          -15.7717911       0.000166547901           178.142414          0.114636536           1.76360358
         0.112893054   0.9339891379999998       0.000166547901           178.142414  0.07126101980000001            -16.98671      2.96294093e-005          -68.6179374
     9.62457452e-005           160.189505          0.114636536           1.76360358      2.96294093e-005          -68.6179374  0.07235272800000001          -15.6723137

!
           140000000         0.0612621941          -23.8740398 7.904107239999999e-005            164.26165          0.112125149          -5.66043423       0.000108247373           150.820144
7.904107239999999e-005            164.26165         0.0630155251          -21.9796033       0.000183847936           169.656212          0.114205694          -4.74516405
         0.112125149          -5.66043423       0.000183847936           169.656212         0.0663782025          -23.5377737      2.91235324e-005   -81.89520280000001
      0.000108247373           150.820144          0.114205694          -4.74516405      2.91235324e-005   -81.89520280000001         0.0677355568          -21.9433671

!
           150000000         0.0543910436          -30.7266001      9.05408817e-005           153.835411          0.109709975          -12.2399742       0.000121141239            141.36234
     9.05408817e-005           153.835411  0.05643614849999999          -28.3881803       0.000201686085           160.979915          0.112159796          -11.2381683
         0.109709975          -12.2399742       0.000201686085           160.979915         0.0598623378           -30.382325      2.80083244e-005          -95.8074201
      0.000121141239            141.36234          0.112159796          -11.2381683      2.80083244e-005          -95.8074201         0.0615129577          -28.4301065

!
           160000000         0.0459065347          -38.0442147       0.000102970183           143.266096          0.105650118          -18.7943727       0.000134930403           131.809623
      0.000102970183           143.266096         0.0482566073   -35.05591679999999       0.000219956656           152.115565            0.1084985          -17.7059461
         0.105650118          -18.7943727       0.000219956656           152.115565         0.0517289192          -37.6418583      2.62564849e-005          -110.633843
      0.000134930403           131.809623            0.1084985          -17.7059461      2.62564849e-005          -110.633843          0.053692652           -35.195104

!
           170000000         0.0358551937   -46.21239740000001       0.000116292546           132.562092         0.0999684354            -25.30474       0.000149591651           122.157269
      0.000116292546           132.562092         0.0385052209          -42.1341772       0.000238520382           143.066538          0.103240104           -24.131246
        0.0999684354            -25.30474       0.000238520382           143.066538         0.0420211217          -45.6002457      2.38720498e-005          -126.855433
      0.000149591651           122.157269          0.103240104           -24.131246      2.38720498e-005          -126.855433         0.0443029485          -42.3862835

!
           180000000         0.0243438148          -56.4847198       0.000130439479           121.732388  0.09271184120000001          -31.7382758       0.000165069312           112.403314
      0.000130439479           121.732388         0.0272379681          -50.0865461       0.000257201357           133.838395  0.09642507669999999          -30.4844265
 0.09271184120000001          -31.7382758       0.000257201357           133.838395         0.0308304718   -55.04902100000001      2.09295142e-005          -145.362407
      0.000165069312           112.403314  0.09642507669999999          -30.4844265      2.09295142e-005          -145.362407         0.0334006961          -50.3994166

!
           190000000         0.0117691508          -76.0334735       0.000145305843           110.787907         0.0839555749          -38.0387156       0.000181270105           102.549581
      0.000145305843           110.787907          0.014574379          -61.1812444       0.000275786414           124.439728         0.0881201511          -36.7154288
        0.0839555749          -38.0387156       0.000275786414           124.439728         0.0183998687   -69.18633180000001      1.76693882e-005          -167.884445
      0.000181270105           102.549581         0.0881201511          -36.7154288      1.76693882e-005          -167.884445         0.0211012944          -60.6894709

!
           200000000        0.00618385085           173.958989       0.000160747265           99.7425823  0.07380787110000001          -44.1070516       0.000198060123    92.60258540000001
      0.000160747265           99.7425823        0.00250532212          -142.665452       0.000294028036           114.882901         0.0784228624          -42.7382776
 0.07380787110000001          -44.1070516       0.000294028036           114.882901 0.006652534550000001          -118.044586       1.4738123e-005           162.491417
      0.000198060123    92.60258540000001         0.0784228624          -42.7382776       1.4738123e-005           162.491417 0.007910124900000001          -85.3127569

!
           210000000         0.0201200487           129.102379       0.000176580572            88.614125         0.0624156511           -49.757559       0.000215265114           82.5741845
      0.000176580572            88.614125         0.0153471746           124.818045       0.000311651621           105.184569  0.06746694390000001          -48.3976415
        0.0624156511           -49.757559       0.000311651621           105.184569          0.013461537           141.187333      1.35715114e-005           123.524289
      0.000215265114           82.5741845  0.06746694390000001          -48.3976415      1.35715114e-005           123.524289 0.008911378100000001           141.173419

!
           220000000         0.0366223475           115.913713       0.000192588056           77.4244207  0.04997466390000001          -54.6011307       0.000232675063           72.4818631
      0.000192588056           77.4244207         0.0316965283           113.270577       0.000328367421           95.3658954  0.05543089399999999   -53.38647990000001
 0.04997466390000001          -54.6011307       0.000328367421           95.3658954         0.0292281239           120.322365      1.57901327e-005            82.671565
      0.000232675063           72.4818631  0.05543089399999999   -53.38647990000001      1.57901327e-005            82.671565         0.0245241288           118.387455

!
           230000000         0.0541444688           106.572385       0.000208525998           66.1995022         0.0367600802          -57.6646028       0.000250053548           62.3485671
      0.000208525998           66.1995022         0.0490140692           104.913154       0.000343886697           85.4523827         0.0425597357          -57.0049466
        0.0367600802          -57.6646028       0.000343886697           85.4523827  0.04637884530000001           109.206809      2.12530244e-005           50.2098201
      0.000250053548           62.3485671         0.0425597357          -57.0049466      2.12530244e-005           50.2098201         0.0414718176            108.01847

!
           240000000         0.0723421918    98.37962600000002       0.000224137195           54.9690821         0.0232725988          -55.6926534       0.000267151609           52.2020446
      0.000224137195           54.9690821         0.0670331908    97.32506790000001       0.000357940713           75.4732784         0.0292498717          -57.2573975
        0.0232725988          -55.6926534       0.000357940713           75.4732784  0.06429043339999999           100.306569      2.88107523e-005           25.7018791
      0.000267151609           52.2020446         0.0292498717          -57.2573975      2.88107523e-005           25.7018791         0.0591915288           99.6580879

!
           250000000         0.0909404062           90.6767929       0.000239166478    43.76566700000001         0.0114739472   -31.50463530000001       0.000283724916           42.0737112
      0.000239166478    43.76566700000001         0.0855087385           90.0311808       0.000370300342           65.4605727         0.0165646296          -46.0351111
        0.0114739472   -31.50463530000001       0.000370300342           65.4605727  0.08264662740000001    92.24069230000001      3.76737844e-005    5.808238950000001
      0.000283724916           42.0737112         0.0165646296          -46.0351111      3.76737844e-005    5.808238950000001  0.07740649789999998           91.9687003

!
           260000000          0.109671548    83.23363569999999       0.000253377454           32.6233291         0.0125805647    38.08876229999999       0.000299552223           31.9971192
      0.000253377454           32.6233291          0.104189196           82.8832851       0.000380793547    55.44765700000001         0.0106243482    8.248062709999999
        0.0125805647    38.08876229999999       0.000380793547    55.44765700000001          0.101168675           84.5827743      4.74010314e-005          -11.5169291
      0.000299552223           31.9971192         0.0106243482    8.248062709999999      4.74010314e-005          -11.5169291  0.09585788200000001           84.5856173

!
           270000000          0.128272898            75.954827       0.000266568306           21.5762564  0.02508552840000001    57.50886700000001       0.000314452541           22.0061695
      0.000266568306           21.5762564          0.122820786           75.8266294       0.000389318082           45.4677689         0.0197123051           48.9919864
 0.02508552840000001    57.50886700000001       0.000389318082           45.4677689          0.119589334    77.16518820000002      5.77042006e-005           -27.306959
      0.000314452541           22.0061695         0.0197123051           48.9919864      5.77042006e-005           -27.306959          0.114289375           77.3761671

!
           280000000          0.146493122            68.797883       0.000278584495           10.6572329         0.0390358916           58.7151897       0.000328298569           12.1332409
      0.000278584495           10.6572329          0.141155897           68.8409777       0.000395847404           35.5523838          0.033028452           55.7283733
        0.0390358916           58.7151897       0.000395847404           35.5523838           0.13765445           69.9133339       6.8361425e-005   -42.09009429999999
      0.000328298569           12.1332409          0.033028452           55.7283733       6.8361425e-005   -42.09009429999999          0.132451798           70.2856469

!
           290000000          0.164100046    61.74360660000001        0.00028932673         -0.103791775         0.0528714262           55.6206102       0.000341024479           2.40742651
       0.00028932673         -0.103791775          0.158961771    61.92049240000001       0.000400429031            25.729723         0.0467243092           54.4887046
        0.0528714262           55.6206102       0.000400429031            25.729723          0.155129308           62.7918394      7.91883004e-005   -56.14933320000001
      0.000341024479           2.40742651         0.0467243092           54.4887046      7.91883004e-005   -56.14933320000001          0.150110723    63.29079080000001

!
           300000000          0.180887213           54.7834552       0.000298753438          -10.6809059         0.0661619435           50.9980987       0.000352627232          -7.14695496
      0.000298753438          -10.6809059          0.176027908           55.0653383       0.000403175856           16.0235297         0.0600602083    50.71640910000001
        0.0661619435           50.9980987       0.000403175856           16.0235297          0.171804754           55.7832598      9.00302398e-005          -69.6439195
      0.000352627232          -7.14695496         0.0600602083    50.71640910000001      9.00302398e-005          -69.6439195          0.167053553           56.3820966

!
           310000000          0.196678193           47.9134625        0.00030687793          -21.0531176  0.07867382370000001           45.7091578 0.0003631617129999999          -16.5114481
       0.00030687793          -21.0531176          0.192171335           48.2776589       0.000404252122    6.452217180000001         0.0727275609           45.8940098
 0.07867382370000001           45.7091578       0.000404252122    6.452217180000001          0.187501412           48.8784073       0.000100761714   -82.66810289999999
0.0003631617129999999          -16.5114481         0.0727275609           45.8940098       0.000100761714   -82.66810289999999          0.183094753           49.5559816

!
           320000000          0.211328351            41.131098       0.000313761281          -31.2048739         0.0902484623           40.1040538       0.000372730971          -25.6740838
      0.000313761281          -31.2048739          0.207239381           41.5594858       0.000403856401          -2.97155955         0.0845372324            40.574532
        0.0902484623           40.1040538       0.000403856401          -2.97155955          0.202071512           42.0715512       0.000111286751           -95.281114
      0.000372730971          -25.6740838         0.0845372324            40.574532       0.000111286751           -95.281114           0.19807871           42.8109276

!
           330000000           0.22472423           34.4336113       0.000319502416          -41.1262255          0.100773431           34.3498363        0.00038147338   -34.62952989999999
      0.000319502416          -41.1262255          0.221110048    34.91164199999999       0.000402204029          -12.2409171         0.0953589654           35.0080937
         0.100773431           34.3498363       0.000402204029          -12.2409171          0.215398384           35.3579279       0.000121538581          -107.523189
       0.00038147338   -34.62952989999999         0.0953589654           35.0080937       0.000121538581          -107.523189          0.211880231    36.14549319999999

!
           340000000          0.236781037           27.8171973       0.000324226973   -50.81269029999999          0.110170894             28.53379        0.00038954867          -43.3788155
      0.000324226973   -50.81269029999999          0.233690337           28.3332117        0.00039951103   -21.35439390000001          0.105102307           29.3218399
         0.110170894             28.53379        0.00039951103   -21.35439390000001          0.227394067           28.7324596       0.000131477879   -119.4244120000001
       0.00038954867          -43.3788155          0.105102307           29.3218399       0.000131477879   -119.4244120000001          0.224403017    29.55730350000001

!
           350000000          0.247438837           21.2766425       0.000328076324          -60.2648866          0.118390072           22.7032357       0.000397124484          -51.9287077
      0.000328076324          -60.2648866          0.244913086           21.8213574        0.00039598091          -30.3153194          0.113706987           23.5845779
         0.118390072           22.7032357        0.00039598091          -30.3153194          0.237995619           22.1891478        0.00014108975          -131.009666
      0.000397124484          -51.9287077          0.113706987           23.5845779        0.00014108975          -131.009666          0.235576637           23.0425943

!
           360000000          0.256658073           14.8052548       0.000331197687          -69.4880163          0.125400883           16.8832499       0.000404364646          -60.2908401
      0.000331197687          -69.4880163          0.254732918           15.3713517       0.000391794964   -39.13099430000001          0.121135912           17.8340251
         0.125400883           16.8832499       0.000391794964   -39.13099430000001           0.24716073           15.7208576       0.000150379904          -142.301383
      0.000404364646          -60.2908401          0.121135912           17.8340251       0.000150379904          -142.301383          0.245352595           16.5960812

!
           370000000          0.264414942           8.39495951       0.000333735857   -78.49126819999999          0.131188216            11.085531       0.000411419771          -68.4806935
      0.000333735857   -78.49126819999999           0.26312186    8.976734130000001 0.0003871060970000001          -47.8117688          0.127369192           12.0898039
         0.131188216            11.085531 0.0003871060970000001          -47.8117688          0.254863174    9.319325480000002       0.000159370491          -153.321051
      0.000411419771          -68.4806935          0.127369192           12.0898039       0.000159370491          -153.321051          0.253700031           10.2110203

!
           380000000   0.2706970439999999           2.03648221        0.00033582669          -87.2871957           0.13574687           5.31330123       0.000418420384   -76.51652009999999
       0.00033582669          -87.2871957          0.270065048           2.62953525 0.0003820357670000001          -56.3700922          0.132398885           6.36030681
          0.13574687           5.31330123 0.0003820357670000001          -56.3700922          0.261088501           2.97529183       0.000168095986           -164.08998
      0.000418420384   -76.51652009999999          0.132398885           6.36030681       0.000168095986           -164.08998          0.260601499    3.879372490000002

!
           390000000          0.275499553   -4.280428200000001       0.000337592185          -95.8911004          0.139077298  -0.4357305060000001       0.000425472361          -84.4182866
      0.000337592185          -95.8911004          0.275556852   -3.679473359999999       0.000376673405          -64.8195858          0.136224512   0.6466557479999999
         0.139077298  -0.4357305060000001       0.000376673405          -64.8195858           0.26583025          -3.32130311       0.000176599365          -174.629676