! Tyco Electronics Strada Whisper System
! FEXT_G1415_G1112
!! 
!! SYSTEM DESCRIPTION: Daughtercard-Footprint-Connector-Footprint-Daughtercard
!! PCB DESCRIPTION: DC: 140mil, Megtron7N, upper layer route, 15mil stub, 6-6-6mil 4" traces
!! CONNECTOR DESCRIPTION: Next-Gen STRADA Whisper Direct-Plug Orthogonal Connector
!! MODEL DESCRIPTION: Tyco Electronics System 4-port S-parameter 
!! MODEL STATUS: Developmental
!! MODEL GEOMETRY: Channel Model
!! MODEL FREQUENCY RANGE: DC to 60 GHz in 10 MHz frequency steps
!! MODEL EDGE RATE LIMITATION: 8.3 ps (Using conservative 0.5/Fmax rule of thumb)
!! 
!! TIME-DOMAIN TRANSFORM CAUTIONS: 
!! 1.) Do not simulate transient edge rates faster than the number listed above.  Edge rates faster than this number 
!!     contain significant spectral content at frequencies above the model's highest frequency. 
!! 2.) Even when simulating edge rates that are slower than the number listed above, be aware that the best time 
!!     resolution possible with a direct iFFT is (1 / 2Fmax).  As a result, time resolution is typically not adequate 
!!     for most time-domain simulations unless tricks such as windowing are used to minimize leakage and aliasing. 
!! 3.) Because the model has a uniform frequency step, a direct iFFT will result in an impulse that that has a time 
!!     length given by either (1 / Fstep) or (1 / 2Fstep), depending on the transform being used.  Care has been taken 
!!     in selecting the frequency step to ensure a settled impulse response for the model.  Therefore, convolution with 
!!     the model's impulse response should present no issues.  However, if directly concatenating s-parameter models 
!!     in the frequency domain a user must either interpolate necessary interim frequencies or complete impulse response 
!!     zero-padding.  Impulse response zero-padding is more difficult, but more accurate. 
!! 
!! PORT DEFINITIONS: 
!! Port   1  ----->  TX Side	G14     G11     RX Side  <-----  Port   3
!! Port   2  ----->  TX Side	G15     G12     RX Side  <-----  Port   4
!! 
!!!!!!!!!!!!!!!!!!!!!!!!!!!!!!!!!!!!!!!!!!!!!!!!!!!!!!!!!!!!!!!!!!!!!!!!!!!!!!!!!!!!!!!!!!!!!!!!!!!!!!!!!!!!!!!!!!!!!!!!
! Touchstone data
! Created: 10-Dec-2018 by IdEM R2012 (8.0.5)
# Hz S MA R 50

!
                   0         0.0276104757                    0      5.25686326e-006                  180        0.00199318505                    0      1.56479809e-005                  180
     5.25686326e-006                  180         0.0290964973                    0      2.36383495e-006                  180        0.00216407038                    0
       0.00199318505                    0      2.36383495e-006                  180         0.0277289835                    0      5.21198323e-006                  180
     1.56479809e-005                  180        0.00216407038                    0      5.21198323e-006                  180         0.0295037091                    0

!
            10000000         0.0299547763           13.2506347      7.93862216e-006           124.257419         0.0140282695           74.7986993      2.05561436e-005          -147.337037
     7.93862216e-006           124.257419         0.0315159481           13.2661868      6.62303507e-006          -118.024912         0.0130615295           73.5456837
        0.0140282695           74.7986993      6.62303507e-006          -118.024912         0.0301808869           13.7721879      1.76633331e-005          -115.226193
     2.05561436e-005          -147.337037         0.0130615295           73.5456837      1.76633331e-005          -115.226193         0.0320505787           13.7149653

!
            20000000         0.0350516589           21.7291351       1.3019015e-005    99.45615390000002         0.0276016195           71.8419256      3.08457069e-005          -136.072689
      1.3019015e-005    99.45615390000002         0.0368219259           21.8473248      1.26212138e-005          -115.056549         0.0256140579    71.37093059999999
        0.0276016195           71.8419256      1.26212138e-005          -115.056549         0.0355337164           22.5038578      3.41288774e-005          -114.923062
     3.08457069e-005          -136.072689         0.0256140579    71.37093059999999      3.41288774e-005          -114.923062         0.0376676277           22.4964202

!
            30000000         0.0415738578            25.373913      1.86486011e-005    84.84287260000001         0.0407786198            66.218045      4.26364947e-005          -134.909432
     1.86486011e-005    84.84287260000001         0.0436438036           25.6434123       1.8809425e-005          -118.649141  0.03778715299999999           66.0943923
        0.0407786198            66.218045       1.8809425e-005          -118.649141         0.0423685711           26.2151688      5.08132808e-005          -120.088657
     4.26364947e-005          -134.909432  0.03778715299999999           66.0943923      5.08132808e-005          -120.088657         0.0448818106           26.3123894

!
            40000000         0.0485062709           25.6038427      2.44757074e-005    73.66852729999999         0.0533294049    59.93897549999999      5.47881645e-005          -137.719792
     2.44757074e-005    73.66852729999999         0.0509279971              26.0427      2.51134649e-005          -124.031814  0.04934309299999999    60.05495800000001
        0.0533294049    59.93897549999999      2.51134649e-005          -124.031814  0.04962641250000001           26.4442384      6.75261019e-005          -126.678279
     5.47881645e-005          -137.719792  0.04934309299999999    60.05495800000001      6.75261019e-005          -126.678279         0.0525870203           26.6613292

!
            50000000         0.0552025724           23.6356756      3.04117921e-005           63.9757117  0.06506723590000001    53.41424910000001      6.69200113e-005          -142.343178
     3.04117921e-005           63.9757117  0.05800255160000001           24.2529619      3.15387047e-005          -130.177287         0.0600943921           53.7324481
 0.06506723590000001    53.41424910000001      3.15387047e-005          -130.177287         0.0566459511           24.4631394 8.423301350000001e-005          -133.837213
     6.69200113e-005          -142.343178         0.0600943921           53.7324481 8.423301350000001e-005          -133.837213         0.0600917074           24.8028434

!
            60000000         0.0612460397           20.2510204      3.64255312e-005           55.0293214  0.07582827609999999    46.78111950000001      7.88661075e-005          -147.904605
     3.64255312e-005           55.0293214         0.0644344078           21.0568757      3.81035246e-005          -136.744209         0.0698774593    47.28970009999999
 0.07582827609999999    46.78111950000001      3.81035246e-005          -136.744209         0.0630058273           21.0729922       0.000100933515          -141.278511
     7.88661075e-005          -147.904605         0.0698774593    47.28970009999999       0.000100933515          -141.278511          0.066956058           21.5370977

!
            70000000         0.0663517303           15.9232396      4.25012709e-005            46.496533         0.0854695515           40.0973511      9.05416181e-005          -153.994035
     4.25012709e-005            46.496533         0.0699274657           16.9328925      4.48282437e-005          -143.592733  0.07854969019999999           40.7974653
        0.0854695515           40.0973511      4.48282437e-005          -143.592733         0.0684197069           16.7536869       0.000117641736          -148.882021
     9.05416181e-005          -153.994035  0.07854969019999999           40.7974653       0.000117641736          -148.882021         0.0728817767           17.3469074

!
            80000000  0.07031492659999999           10.9384575      4.86276143e-005    38.20629050000001  0.09386809390000001           33.3896736       0.000101901056          -160.397614
     4.86276143e-005    38.20629050000001         0.0742685162           12.1746629      5.17313893e-005          -150.659374         0.0859884616           34.2911611
 0.09386809390000001           33.3896736      5.17313893e-005          -150.659374  0.07268247430000001           11.7940999       0.000134379842          -156.591993
      0.000101901056          -160.397614         0.0859884616           34.2911611       0.000134379842          -156.591993         0.0776551444           12.5258006

!
            90000000         0.0729843739           5.46983768      5.47937398e-005    30.06265660000001          0.100919687           26.6701158       0.000112921275          -166.995529
     5.47937398e-005    30.06265660000001  0.07729912120000002    6.965537909999999      5.88275013e-005          -157.914464         0.0920899243           27.7901754
         0.100919687           26.6701158      5.88275013e-005          -157.914464         0.0756427207           6.36977263        0.00015117354           -164.38241
      0.000112921275          -166.995529         0.0920899243           27.7901754        0.00015117354           -164.38241  0.08111786779999999           7.25551809

!
           100000000         0.0742474829          -0.38088586      6.09882231e-005           22.0084565          0.106537254            19.942761       0.000123592292           -173.71782
     6.09882231e-005           22.0084565         0.0789000631           1.42126585      6.61253111e-005          -165.344793         0.0967675253           21.3060621
         0.106537254            19.942761      6.61253111e-005          -165.344793         0.0771876224          0.585948505       0.000168047727          -172.242759
      0.000123592292           -173.71782         0.0967675253           21.3060621       0.000168047727          -172.242759  0.08315111309999999           1.64966507

!
           110000000         0.0740215565   -6.561324170000001      6.71988015e-005           14.0081489          0.110649202           13.2070661       0.000133910928           179.476956
     6.71988015e-005           14.0081489  0.07898206080000002   -4.385776859999999 7.362598520000001e-005          -172.945497  0.09995055560000002           14.8468609
         0.110649202           13.2070661 7.362598520000001e-005          -172.945497         0.0772339241          -5.49919904       0.000185021904           179.828772
      0.000133910928           179.476956  0.09995055560000002           14.8468609       0.000185021904           179.828772  0.08366602079999999          -4.22182634

!
           120000000          0.072248532          -13.0585376 7.341252669999999e-005           6.03898721          0.113198096           6.45978186       0.000143875623           172.613049
7.341252669999999e-005           6.03898721         0.0774799731          -10.4129153      8.13213472e-005           179.284166          0.101583082    8.420013339999999
         0.113198096           6.45978186      8.13213472e-005           179.284166  0.07572237110000001          -11.8630938       0.000202105371           171.829031
      0.000143875623           172.613049          0.101583082    8.420013339999999       0.000202105371           171.829031         0.0825977936          -10.3190649

!
           130000000          0.068892366          -19.8988639 7.961608879999999e-005          -1.91389921          0.114139935         -0.303747487        0.00015348193           165.704126
7.961608879999999e-005          -1.91389921  0.07434930070000001          -16.6400478      8.91920724e-005           171.343253          0.101623581           2.03493586
         0.114139935         -0.303747487      8.91920724e-005           171.343253  0.07261458609999999          -18.5157027       0.000219292337           163.752225
       0.00015348193           165.704126          0.101623581           2.03493586       0.000219292337           163.752225          0.079902135          -16.6252173

!
           140000000         0.0639391597          -27.1596525 8.579621030000001e-005   -9.860435730000001          0.113444281   -7.088577009999999       0.000162718587           158.757497
8.579621030000001e-005   -9.860435730000001         0.0695645059          -23.0676103      9.72059181e-005           163.230708          0.100045517          -4.29409605
         0.113444281   -7.088577009999999      9.72059181e-005           163.230708         0.0678922183           -25.505323       0.000236557162           155.591552
      0.000162718587           158.757497          0.100045517          -4.29409605       0.000236557162           155.591552         0.0755535559           -23.144617

!
           150000000         0.0574012339          -35.0031818      9.19400394e-005          -17.8074765          0.111095322          -13.8992862       0.000171564314           151.777084
     9.19400394e-005          -17.8074765  0.06311898100000001           -29.720671       0.000105316118           154.946486  0.09683905920000001          -10.5440745
         0.111095322          -13.8992862       0.000105316118           154.946486         0.0615588903          -32.9389448       0.000253850019           147.340471
      0.000171564314           151.777084  0.09683905920000001          -10.5440745       0.000253850019           147.340471  0.06954541509999999          -29.9067307

!
           160000000         0.0493291332          -43.7651659      9.80354576e-005          -25.7600954          0.107093891          -20.7391471       0.000179985594           144.765714
     9.80354576e-005          -25.7600954         0.0550267114   -36.66499590000001       0.000113460163           146.492459         0.0920140327          -16.6773248
         0.107093891          -20.7391471       0.000113460163           146.492459         0.0536468309   -41.03591170000001       0.000271093348           138.993751
      0.000179985594           144.765714         0.0920140327          -16.6773248       0.000271093348           138.993751         0.0618918042          -36.9806715

!
           170000000          0.039845628   -54.20869620000001       0.000104071185          -33.7225353          0.101460298          -27.6092613       0.000187935826              137.727
      0.000104071185          -33.7225353  0.04532616480000001   -44.05631500000001       0.000121559257           137.873197  0.08560427910000001          -22.6314112
         0.101460298          -27.6092613       0.000121559257           137.873197  0.04423464740000001          -50.2769533 0.0002881796260000001           130.548379
      0.000187935826              137.727  0.08560427910000001          -22.6314112 0.0002881796260000001           130.548379  0.05263193239999999          -44.5159217

!
           180000000         0.0292642032          -68.4039363       0.000110036541          -41.6989223  0.09423772050000001          -34.5075662       0.000195356261            130.66693
      0.000110036541          -41.6989223         0.0340892808   -52.31342479999999       0.000129518815           129.096656  0.07767377709999999          -28.3002504
 0.09423772050000001          -34.5075662       0.000129518815           129.096656         0.0335030994   -61.89607850000001       0.000304971006           122.004349
      0.000195356261            130.66693  0.07767377709999999          -28.3002504       0.000304971006           122.004349         0.0418398382          -52.8665997

!
           190000000         0.0186758441          -93.5641945       0.000115920715          -49.6937631         0.0854957428          -41.4275075       0.000202179142           123.595186
      0.000115920715          -49.6937631         0.0214554063   -62.98524020000001        0.00013723037           120.174751         0.0683257609          -33.4950928
        0.0854957428          -41.4275075        0.00013723037           120.174751         0.0219840988   -80.02565730000001       0.000321301465           113.365313
      0.000202179142           123.595186         0.0683257609          -33.4950928       0.000321301465           113.365313         0.0296541707   -63.07353069999999

!
           200000000         0.0133985135          -150.198368       0.000121711484          -57.7121872         0.0753334967          -48.3558784        0.00020833331           116.526135
      0.000121711484          -57.7121872        0.00801321573          -88.9773467       0.000144575177            111.12376         0.0577189582          -37.8542485
        0.0753334967          -48.3558784       0.000144575177            111.12376         0.0123854208          -123.268498 0.0003369819530000001           104.639049
       0.00020833331           116.526135         0.0577189582          -37.8542485 0.0003369819530000001           104.639049         0.0164502337   -79.84815690000001

!
           210000000         0.0214903901            156.80383       0.000127393433          -65.7598752         0.0638817859          -55.2684119        0.00021375222           109.479391
      0.000127393433          -65.7598752 0.009329746090000002           139.753152       0.000151429631           101.964504         0.0461057082          -40.6032651
        0.0638817859          -55.2684119       0.000151429631           101.964504         0.0156954971           164.923596       0.000351808791           95.8377167
       0.00021375222           109.479391         0.0461057082          -40.6032651       0.000351808791           95.8377167        0.00618320462          -152.257038

!
           220000000         0.0360488078           133.295972       0.000132945943   -73.84263350000001  0.05130357910000001          -62.1184986       0.000218383904            102.47982
      0.000132945943   -73.84263350000001         0.0251453383           116.625263       0.000157672311           92.7222173         0.0339533638          -39.7992231
 0.05130357910000001          -62.1184986       0.000157672311           92.7222173         0.0294490116           134.001413        0.00036557512    86.97782460000001
      0.000218383904            102.47982         0.0339533638          -39.7992231        0.00036557512    86.97782460000001         0.0169698504           129.910605

!
           230000000         0.0527090574           119.341257       0.000138341422          -81.9656378         0.0377924917            -68.80001       0.000222201834    95.55687500000001
      0.000138341422          -81.9656378          0.042247718           106.013968       0.000163192134           83.4260652         0.0224677922           -29.557843
        0.0377924917            -68.80001       0.000163192134           83.4260652         0.0458704285           118.656466       0.000378084617            78.079886
      0.000222201834    95.55687500000001         0.0224677922           -29.557843       0.000378084617            78.079886          0.033298645           112.364959

!
           240000000         0.0704084581           108.680591       0.000143544365          -90.1324596         0.0235699252   -74.96971390000002       0.000225215199    88.74318839999999
      0.000143544365          -90.1324596         0.0600259029           97.4908794       0.000167896698           74.1082974         0.0160083943           4.56290314
        0.0235699252   -74.96971390000002       0.000167896698           74.1082974         0.0633998021           107.674259       0.000389166115           69.1677504
      0.000225215199    88.74318839999999         0.0160083943           4.56290314       0.000389166115           69.1677504         0.0506430328           101.767211

!
           250000000         0.0886737839           99.4775722       0.000148511797   -98.34407109999999 0.008894990429999999          -78.0826416       0.000227476795           82.0724139
      0.000148511797   -98.34407109999999  0.07818149720000001           89.6821496        0.00017171973    64.80306450000001         0.0213960659    42.76559399999999
0.008894990429999999          -78.0826416        0.00017171973    64.80306450000001  0.08151020069999999           98.4046063 0.0003986873360000001           60.2676439
      0.000227476795           82.0724139         0.0213960659    42.76559399999999 0.0003986873360000001           60.2676439         0.0684701982    93.01506890000002

!
           260000000          0.107164294    91.04550329999999       0.000153195366          -106.598067 0.006175288619999999           79.5330402       0.000229086817           75.5764276
      0.000153195366          -106.598067         0.0964431801           82.2110165       0.000174626489           55.5449954         0.0336361626           55.7293956
0.006175288619999999           79.5330402       0.000174626489           55.5449954          0.099854295           89.9777746 0.0004065658420000001    51.40699610000001
      0.000229086817           75.5764276         0.0336361626           55.7293956 0.0004065658420000001    51.40699610000001         0.0864636424    85.02014509999999

!
           270000000          0.125584382    83.08034309999999       0.000157544971          -114.888307          0.021042341           79.0299267       0.000230191325           69.2821182
      0.000157544971          -114.888307          0.114549982            74.939792       0.000176616276           46.3676688         0.0476332199           57.5471749
         0.021042341           79.0299267       0.000176616276           46.3676688          0.118136381           82.0375918        0.00041277564    42.61316789999999
      0.000230191325           69.2821182         0.0476332199           57.5471749        0.00041277564    42.61316789999999          0.104347781           77.4234228

!
           280000000           0.14366573           75.4318608       0.000161513353          -123.205095         0.0357002961           73.2608647       0.000230975027           63.2081275
      0.000161513353          -123.205095          0.132255606    67.81099510000001       0.000177721646           37.3021394         0.0619153443    55.30548150000001
        0.0357002961           73.2608647       0.000177721646           37.3021394          0.136088514    74.41686350000001       0.000417348573           33.9122108
      0.000230975027           63.2081275         0.0619153443    55.30548150000001       0.000417348573           33.9122108          0.121869452           70.0780639

!
           290000000          0.161166407    68.02008290000001       0.000165060803          -131.535862         0.0498902927    66.93602730000001       0.000231649008    57.36200869999999
      0.000165060803          -131.535862          0.149335358    60.79922109999999       0.000178004532           28.3756742  0.07591899219999999           51.2967889
        0.0498902927    66.93602730000001       0.000178004532           28.3756742           0.15346857           67.0298213       0.000420370531           25.3277838
      0.000231649008    57.36200869999999  0.07591899219999999           51.2967889       0.000420370531           25.3277838          0.138799355           62.9162037

!
           300000000           0.17787383           60.7998618        0.00016815912          -139.866232  0.06341579610000001    60.50710779999999       0.000232435058    51.73831229999999
       0.00016815912          -139.866232          0.165591968           53.8928957       0.000177549999           19.6108218         0.0893282738            46.409696
 0.06341579610000001    60.50710779999999       0.000177549999           19.6108218          0.170063136    59.82945469999999 0.0004219734190000001            16.880324
      0.000232435058    51.73831229999999         0.0893282738            46.409696 0.0004219734190000001            16.880324          0.154936201    55.90373120000001

!
           310000000          0.193607444    53.74409189999999       0.000170794122          -148.181261  0.07611337730000001            54.097865       0.000233548832    46.31804660000001
      0.000170794122          -148.181261          0.180859161           47.0862467       0.000176458666           11.0248844          0.101929742    41.05142129999999
 0.07611337730000001            54.097865       0.000176458666           11.0248844          0.185690289           52.7882486       0.000422324363           8.58652167
      0.000233548832    46.31804660000001          0.101929742    41.05142129999999       0.000422324363           8.58652167          0.170109759           49.0219388

!
           320000000          0.208219686           46.8351075       0.000172966429          -156.466655         0.0878522236           47.7574265       0.000235184345           41.0697636
      0.000172966429          -156.466655          0.195002709            40.375432       0.000174838921           2.62980632          0.113570322           35.4318857
        0.0878522236           47.7574265       0.000174838921           2.62980632          0.200200722    45.88865570000001 0.0004216139140000001   0.4591025939999999
      0.000235184345           41.0697636          0.113570322           35.4318857 0.0004216139140000001   0.4591025939999999          0.184181801           42.2591354

!
           330000000          0.221594962            40.060052       0.000174690573          -164.709804  0.09853290739999999    41.50852789999999       0.000237501929           35.9521999
      0.000174690573          -164.709804           0.20791922    33.75660140000001       0.000172799879          -5.56756519          0.124140593           29.6678134
 0.09853290739999999    41.50852789999999       0.000172799879          -5.56756519          0.213476867           39.1181011        0.00042004478   -7.493122049999999
      0.000237501929           35.9521999          0.124140593           29.6678134        0.00042004478   -7.493122049999999          0.197044938           35.6065282

!
           340000000          0.233646922           33.4083382       0.000175992789          -172.900529          0.108084465           35.3615186       0.000240621048           30.9180549
      0.000175992789          -172.900529          0.219533156           27.2249566       0.000170445727          -13.5649214          0.133565244           23.8266766
         0.108084465           35.3615186       0.000170445727          -13.5649214          0.225430298    32.46629459999999       0.000417822262          -15.2650072
      0.000240621048           30.9180549          0.133565244           23.8266766       0.000417822262          -15.2650072          0.208619754    29.05614640000001

!
           350000000          0.244314536           26.8702779       0.000176907996           178.968458          0.116460216    29.31970619999999       0.000244618358           25.9182135
      0.000176907996           178.968458          0.229792728           20.7743625       0.000167871759          -21.3637349          0.141795768           17.9474711
         0.116460216    29.31970619999999       0.000167871759          -21.3637349          0.235997926           25.9238022       0.000415146997          -22.8547067
      0.000244618358           25.9182135          0.141795768           17.9474711       0.000415146997          -22.8547067          0.218850808           22.5998247

!
           360000000          0.253557559           20.4363902        0.00017747644           170.901397           0.12363292           23.3819332       0.000249530369           20.9056558
       0.00017747644           170.901397          0.238665252           14.3972691       0.000165162125   -28.96840200000001          0.148804094           12.0515019
          0.12363292           23.3819332       0.000165162125   -28.96840200000001          0.245137537           19.4813329       0.000412210191   -30.26326730000001
      0.000249530369           20.9056558          0.148804094           12.0515019       0.000412210191   -30.26326730000001          0.227702093           16.2287624

!
           370000000          0.261351882           14.0971146       0.000177740434           162.899547          0.129589833           17.5441213       0.000255359386           15.8384471
      0.000177740434           162.899547          0.246132474    8.084806370000003       0.000162389075          -36.3853732          0.154576905    6.148444240000001
         0.129589833           17.5441213       0.000162389075          -36.3853732           0.25282321           13.1294451       0.000409191089          -37.4942503
      0.000255359386           15.8384471          0.154576905    6.148444240000001       0.000409191089          -37.4942503          0.235152435    9.933404610000002

!
           380000000          0.267685166    7.842762210000001       0.000177741446           154.961431          0.134328103            11.800392       0.000262081079           10.6815036
      0.000177741446           154.961431          0.252186236           1.82696894        0.00015961341          -43.6223461          0.159110702          0.239984621
         0.134328103            11.800392        0.00015961341          -43.6223461           0.25904099           6.85849728       0.000406256282          -44.5534328
      0.000262081079           10.6815036          0.159110702          0.239984621       0.000406256282          -44.5534328           0.24119121           3.70349907

!
           390000000          0.272553029           1.66361046       0.000177517698           147.083217          0.137850802    6.144007469999999       0.000269652127           5.40715374
      0.000177517698           147.083217          0.256824723          -4.38716018       0.000156885808          -50.6875781          0.162407718          -5.67787126
         0.137850802    6.144007469999999       0.000156885808          -50.6875781          0.263785104          0.658744199       0.000403560292          -51.4486195