! Tyco Electronics Strada Whisper System
! FEXT_H89_G1112
!! 
!! SYSTEM DESCRIPTION: Daughtercard-Footprint-Connector-Footprint-Daughtercard
!! PCB DESCRIPTION: DC: 140mil, Megtron7N, upper layer route, 15mil stub, 6-6-6mil 4" traces
!! CONNECTOR DESCRIPTION: Next-Gen STRADA Whisper Direct-Plug Orthogonal Connector
!! MODEL DESCRIPTION: Tyco Electronics System 4-port S-parameter 
!! MODEL STATUS: Developmental
!! MODEL GEOMETRY: Channel Model
!! MODEL FREQUENCY RANGE: DC to 60 GHz in 10 MHz frequency steps
!! MODEL EDGE RATE LIMITATION: 8.3 ps (Using conservative 0.5/Fmax rule of thumb)
!! 
!! TIME-DOMAIN TRANSFORM CAUTIONS: 
!! 1.) Do not simulate transient edge rates faster than the number listed above.  Edge rates faster than this number 
!!     contain significant spectral content at frequencies above the model's highest frequency. 
!! 2.) Even when simulating edge rates that are slower than the number listed above, be aware that the best time 
!!     resolution possible with a direct iFFT is (1 / 2Fmax).  As a result, time resolution is typically not adequate 
!!     for most time-domain simulations unless tricks such as windowing are used to minimize leakage and aliasing. 
!! 3.) Because the model has a uniform frequency step, a direct iFFT will result in an impulse that that has a time 
!!     length given by either (1 / Fstep) or (1 / 2Fstep), depending on the transform being used.  Care has been taken 
!!     in selecting the frequency step to ensure a settled impulse response for the model.  Therefore, convolution with 
!!     the model's impulse response should present no issues.  However, if directly concatenating s-parameter models 
!!     in the frequency domain a user must either interpolate necessary interim frequencies or complete impulse response 
!!     zero-padding.  Impulse response zero-padding is more difficult, but more accurate. 
!! 
!! PORT DEFINITIONS: 
!! Port   1  ----->  TX Side	H8     G11     RX Side  <-----  Port   3
!! Port   2  ----->  TX Side	H9     G12     RX Side  <-----  Port   4
!! 
!!!!!!!!!!!!!!!!!!!!!!!!!!!!!!!!!!!!!!!!!!!!!!!!!!!!!!!!!!!!!!!!!!!!!!!!!!!!!!!!!!!!!!!!!!!!!!!!!!!!!!!!!!!!!!!!!!!!!!!!! Touchstone data
! Created: 10-Dec-2018 by IdEM R2012 (8.0.5)
# Hz S MA R 50

!
                   0         0.0276104757                    0      1.09412635e-006                  180        0.00199318505                    0      7.12435941e-007                  180
     1.09412635e-006                  180         0.0258772125                    0      1.14277592e-006                  180        0.00162705334                    0
       0.00199318505                    0      1.14277592e-006                  180         0.0277289835                    0      9.91254805e-007                  180
     7.12435941e-007                  180        0.00162705334                    0      9.91254805e-007                  180          0.026091414                    0

!
            10000000         0.0299547763           13.2506347       4.6711934e-006          -112.974578         0.0140282695           74.7986993      7.80749738e-006           88.8841475
      4.6711934e-006          -112.974578         0.0284508088           15.3732707      4.34451515e-006           99.1550948         0.0136741815           76.4220177
        0.0140282695           74.7986993      4.34451515e-006           99.1550948         0.0301808869           13.7721879       1.2665342e-006           138.195925
     7.80749738e-006           88.8841475         0.0136741815           76.4220177       1.2665342e-006           138.195925          0.028832475           16.0674774

!
            20000000         0.0350516589           21.7291351 9.092349940000001e-006          -115.761258         0.0276016195           71.8419256      1.56271711e-005           79.8897881
9.092349940000001e-006          -115.761258         0.0340503945           24.9641708 8.523412400000001e-006    85.46912879999999         0.0269816511           73.1058153
        0.0276016195           71.8419256 8.523412400000001e-006    85.46912879999999         0.0355337164           22.5038578      1.92094518e-006           113.937215
     1.56271711e-005           79.8897881         0.0269816511           73.1058153      1.92094518e-006           113.937215  0.03482079569999999           25.9208562

!
            30000000         0.0415738578            25.373913      1.34506822e-005          -122.907052         0.0407786198            66.218045      2.35786648e-005           72.5781221
     1.34506822e-005          -122.907052  0.04114516930000001           29.0818951      1.28680672e-005           76.6004791         0.0399182917           67.5566012
        0.0407786198            66.218045      1.28680672e-005           76.6004791         0.0423685711           26.2151688      2.80793051e-006    98.77648960000001
     2.35786648e-005           72.5781221         0.0399182917           67.5566012      2.80793051e-006    98.77648960000001          0.042381962           30.0360043

!
            40000000         0.0485062709           25.6038427      1.76680517e-005          -131.144336         0.0533294049    59.93897549999999      3.17073798e-005           65.6213305
     1.76680517e-005          -131.144336           0.04866465           29.5801306       1.7387217e-005           68.8587981         0.0522837378           61.4659688
        0.0533294049    59.93897549999999       1.7387217e-005           68.8587981  0.04962641250000001           26.4442384      3.91117852e-006           86.9528004
     3.17073798e-005           65.6213305         0.0522837378           61.4659688      3.91117852e-006           86.9528004         0.0503851897           30.4491467

!
            50000000         0.0552025724           23.6356756      2.16941706e-005          -139.790132  0.06506723590000001    53.41424910000001      4.00570126e-005    58.73775790000001
     2.16941706e-005          -139.790132         0.0559723218           27.8598869      2.21101243e-005    61.45336860000001  0.06391031690000001           55.1783117
 0.06506723590000001    53.41424910000001      2.21101243e-005    61.45336860000001         0.0566459511           24.4631394      5.25142709e-006    76.30085650000001
     4.00570126e-005    58.73775790000001  0.06391031690000001           55.1783117      5.25142709e-006    76.30085650000001         0.0581760262           28.6313421

!
            60000000         0.0612460397           20.2510204      2.54860145e-005          -148.609778  0.07582827609999999    46.78111950000001      4.86632707e-005    51.82488180000001
     2.54860145e-005          -148.609778         0.0626735217           24.7632547      2.70617882e-005    54.10982460000001         0.0746499514           48.8100364
 0.07582827609999999    46.78111950000001      2.70617882e-005    54.10982460000001         0.0630058273           21.0729922 6.856852569999999e-006    65.99996350000001
     4.86632707e-005    51.82488180000001         0.0746499514           48.8100364 6.856852569999999e-006    65.99996350000001         0.0653550727           25.4440575

!
            70000000         0.0663517303           15.9232396       2.9004516e-005           -157.49834         0.0854695515           40.0973511       5.7552963e-005           44.8342269
      2.9004516e-005           -157.49834          0.068503147           20.7831115      3.22598506e-005           46.7092283         0.0843731551           42.4110377
        0.0854695515           40.0973511      3.22598506e-005           46.7092283         0.0684197069           16.7536869 8.756811380000001e-006           55.7362279
      5.7552963e-005           44.8342269         0.0843731551           42.4110377 8.756811380000001e-006           55.7362279         0.0716562851    21.38337110000001

!
            80000000  0.07031492659999999           10.9384575      3.22132402e-005          -166.399323  0.09386809390000001           33.3896736 6.674413670000002e-005           37.7393634
     3.22132402e-005          -166.399323         0.0732717148           16.2148052      3.77147821e-005    39.19444930000001         0.0929685311           36.0052389
 0.09386809390000001           33.3896736      3.77147821e-005    39.19444930000001  0.07268247430000001           11.7940999      1.09808837e-005           45.3979877
6.674413670000002e-005           37.7393634         0.0929685311           36.0052389      1.09808837e-005           45.3979877         0.0768903747           16.7432519

!
            90000000         0.0729843739           5.46983768      3.50774384e-005          -175.276514          0.100919687           26.6701158      7.62464601e-005           30.5245693
     3.50774384e-005          -175.276514         0.0768388669           11.2410721      4.34308119e-005           31.5370502           0.10034174           29.6042728
         0.100919687           26.6701158      4.34308119e-005           31.5370502         0.0756427207           6.36977263      1.35588914e-005    34.95468020000001
     7.62464601e-005           30.5245693           0.10034174           29.6042728      1.35588914e-005    34.95468020000001         0.0809175353           11.7039607

!
           100000000         0.0742474829          -0.38088586      3.75633323e-005            175.89845          0.106537254            19.942761 8.606142840000002e-005           23.1797813
     3.75633323e-005            175.89845  0.07909910520000001    5.978075849999999      4.94067998e-005           23.7228224          0.106414019           23.2131758
         0.106537254            19.942761      4.94067998e-005           23.7228224         0.0771876224          0.585948505      1.65208117e-005           24.4059386
8.606142840000002e-005           23.1797813          0.106414019           23.2131758      1.65208117e-005           24.4059386         0.0836329195    6.379034769999998

!
           110000000         0.0740215565   -6.561324170000001      3.96377691e-005           167.153149          0.110649202           13.2070661      9.61821189e-005           15.6979933
     3.96377691e-005           167.153149  0.07997323379999999   0.5009175890000001      5.56366765e-005           15.7445581          0.111120536           16.8332389
         0.110649202           13.2070661      5.56366765e-005           15.7445581         0.0772339241          -5.49919904      1.98963132e-005           13.7600212
     9.61821189e-005           15.6979933          0.111120536           16.8332389      1.98963132e-005           13.7600212          0.084957963          0.840951355

!
           120000000          0.072248532          -13.0585376      4.12684785e-005           158.519642          0.113198096           6.45978186       0.000106592338    8.073848769999998
     4.12684785e-005           158.519642         0.0794027735          -5.14170524      6.21092701e-005           7.59822087          0.114408891           10.4637286
         0.113198096           6.45978186      6.21092701e-005           7.59822087  0.07572237110000001          -11.8630938      2.37138428e-005            3.0251335
      0.000106592338    8.073848769999998          0.114408891           10.4637286      2.37138428e-005            3.0251335           0.08483472          -4.86433499

!
           130000000          0.068892366          -19.8988639      4.24252238e-005           150.039477          0.114139935         -0.303747487       0.000117265122   0.3029442949999999
     4.24252238e-005           150.039477         0.0773462151          -10.9187728 6.880747660000001e-005         -0.719025375           0.11623802            4.1031437
         0.114139935         -0.303747487 6.880747660000001e-005         -0.719025375  0.07261458609999999          -18.5157027      2.79992408e-005   -7.793461889999998
      0.000117265122   0.3029442949999999           0.11623802            4.1031437      2.79992408e-005   -7.793461889999998         0.0832220501          -10.7089248

!
           140000000         0.0639391597          -27.1596525 4.308221250000001e-005           141.769347          0.113444281   -7.088577009999999       0.000128160685   -7.618381619999998
4.308221250000001e-005           141.769347  0.07377665379999999          -16.8116482 7.570683040000001e-005   -9.209656539999997          0.116577728          -2.24968776
         0.113444281   -7.088577009999999 7.570683040000001e-005   -9.209656539999997         0.0678922183           -25.505323 3.277387859999999e-005          -18.6937465
      0.000128160685   -7.618381619999998          0.116577728          -2.24968776 3.277387859999999e-005          -18.6937465         0.0800931932          -16.6780903

!
           150000000         0.0574012339          -35.0031818      4.32222425e-005           133.788062          0.111095322          -13.8992862       0.000139223989          -15.6929054
     4.32222425e-005           133.788062  0.06868061960000001          -22.8110048      8.27736247e-005          -17.8758975          0.115408956   -8.594491870000001
         0.111095322          -13.8992862      8.27736247e-005          -17.8758975         0.0615588903          -32.9389448      3.80523394e-005          -29.6761366
      0.000139223989          -15.6929054          0.115408956   -8.594491870000001      3.80523394e-005          -29.6761366         0.0754345565          -22.7678799

!
           160000000         0.0493291332          -43.7651659      4.28432373e-005           126.205414          0.107093891          -20.7391471       0.000150382286          -23.9221133
     4.28432373e-005           126.205414         0.0620580146   -28.91562570000001 8.996281430000001e-005          -26.7193476          0.112724867          -14.9282547
         0.107093891          -20.7391471 8.996281430000001e-005          -26.7193476         0.0536468309   -41.03591170000001      4.38397027e-005          -40.7422504
      0.000150382286          -23.9221133          0.112724867          -14.9282547      4.38397027e-005          -40.7422504  0.06924563490000001          -28.9851298

!
           170000000          0.039845628   -54.20869620000001      4.19680646e-005           119.173044          0.101460298          -27.6092613       0.000161543037          -32.3056129
     4.19680646e-005           119.173044         0.0539230677          -35.1337918 9.721602579999999e-005          -35.7402952          0.108532709          -21.2435426
         0.101460298          -27.6092613 9.721602579999999e-005          -35.7402952  0.04423464740000001          -50.2769533      5.01285716e-005           -51.893574
      0.000161543037          -32.3056129          0.108532709          -21.2435426      5.01285716e-005           -51.893574         0.0615400087          -35.3511977

!
           180000000         0.0292642032          -68.4039363      4.06587934e-005           112.895964  0.09423772050000001          -34.5075662       0.000172592783          -40.8404402
     4.06587934e-005           112.895964         0.0443061875          -41.4907836       0.000104460076   -44.93685920000001          0.102856376          -27.5260868
 0.09423772050000001          -34.5075662       0.000104460076   -44.93685920000001         0.0335030994   -61.89607850000001      5.68960651e-005          -63.1301815
      0.000172592783          -40.8404402          0.102856376          -27.5260868      5.68960651e-005          -63.1301815         0.0523473728           -41.914297

!
           190000000         0.0186758441          -93.5641945      3.90365146e-005           107.638892         0.0854957428          -41.4275075       0.000183397531   -49.52034379999999
     3.90365146e-005           107.638892         0.0332565787          -48.0582498       0.000111606462          -54.3040776  0.09573948389999999          -33.7509505
        0.0854957428          -41.4275075       0.000111606462          -54.3040776         0.0219840988   -80.02565730000001 6.410111290000001e-005          -74.4495944
      0.000183397531   -49.52034379999999  0.09573948389999999          -33.7509505 6.410111290000001e-005          -74.4495944         0.0417167066          -48.7884958

!
           200000000         0.0133985135          -150.198368      3.73063838e-005           103.710693         0.0753334967          -48.3558784       0.000193805267          -58.3351359
     3.73063838e-005           103.710693          0.020845897          -55.1064357       0.000118552278          -63.8330606         0.0872487685          -39.8758318
        0.0753334967          -48.3558784       0.000118552278          -63.8330606         0.0123854208          -123.268498      7.16824794e-005          -85.8458418
      0.000193805267          -58.3351359         0.0872487685          -39.8758318      7.16824794e-005          -85.8458418         0.0297218312          -56.3056461

!
           210000000         0.0214903901            156.80383      3.57816102e-005           101.390728         0.0638817859          -55.2684119       0.000203650988          -67.2702073
     3.57816102e-005           101.390728        0.00718294342          -65.1164447        0.00012518295   -73.51031879999999  0.07747765180000001          -45.8281255
        0.0638817859          -55.2684119        0.00012518295   -73.51031879999999         0.0156954971           164.923596      7.95580026e-005          -97.3087769
      0.000203650988          -67.2702073  0.07747765180000001          -45.8281255      7.95580026e-005          -97.3087769         0.0164815548   -65.97114170000002

!
           220000000         0.0360488078           133.295972      3.48851893e-005           100.750979  0.05130357910000001          -62.1184986       0.000212764394   -76.30629759999999
     3.48851893e-005           100.750979        0.00771508862           119.005331       0.000131376956          -83.3173743         0.0665501778          -51.4770128
 0.05130357910000001          -62.1184986       0.000131376956          -83.3173743         0.0294490116           134.001413 8.762551070000001e-005          -108.823703
      0.000212764394   -76.30629759999999         0.0665501778          -51.4770128 8.762551070000001e-005          -108.823703        0.00280709695          -113.048644

!
           230000000         0.0527090574           119.341257      3.50895431e-005             101.4024         0.0377924917            -68.80001       0.000220979902   -85.41960030000001
     3.50895431e-005             101.4024         0.0235325414           109.041136        0.00013701243          -93.2307378  0.05462686070000001          -56.5647174
        0.0377924917            -68.80001        0.00013701243          -93.2307378         0.0458704285           118.656466      9.57657418e-005   -120.3713570000001
      0.000220979902   -85.41960030000001  0.05462686070000001          -56.5647174      9.57657418e-005   -120.3713570000001         0.0137628124           116.950611

!
           240000000         0.0704084581           108.680591 3.677299089999999e-005           102.406598         0.0235699252   -74.96971390000002        0.00022814814   -94.58225330000001
3.677299089999999e-005           102.406598         0.0401979172            101.77169        0.00014197513          -103.222307         0.0419193202          -60.5047716
        0.0235699252   -74.96971390000002        0.00014197513          -103.222307         0.0633998021           107.674259       0.000103847338          -131.928267
       0.00022814814   -94.58225330000001         0.0419193202          -60.5047716       0.000103847338          -131.928267         0.0300188838           105.642822

!
           250000000         0.0886737839           99.4775722      4.00677629e-005           102.629707 0.008894990429999999          -78.0826416       0.000234147597          -103.763222
     4.00677629e-005           102.629707         0.0575020723    94.86462510000001       0.000146166916          -113.260196         0.0287483446   -61.61755350000001
0.008894990429999999          -78.0826416       0.000146166916          -113.260196  0.08151020069999999           98.4046063       0.000111733642          -143.467487
      0.000234147597          -103.763222         0.0287483446   -61.61755350000001       0.000111733642          -143.467487         0.0469956717    97.58452080000001

!
           260000000          0.107164294    91.04550329999999      4.48320992e-005           101.297132 0.006175288619999999           79.5330402       0.000238894831          -112.929531
     4.48320992e-005           101.297132         0.0752301808           88.0663151       0.000149513612          -123.309945         0.0159116614   -52.78685529999999
0.006175288619999999           79.5330402       0.000149513612          -123.309945          0.099854295           89.9777746       0.000119290653           -154.95965
      0.000238894831          -112.929531         0.0159116614   -52.78685529999999       0.000119290653           -154.95965         0.0644355762           90.2531565

!
           270000000          0.125584382    83.08034309999999      5.07563794e-005    98.20145789999999          0.021042341           79.0299267       0.000242351654          -122.047748
     5.07563794e-005    98.20145789999999  0.09315699169999998           81.3168725       0.000151971082          -133.336022        0.00878959753            4.0253408
         0.021042341           79.0299267       0.000151971082          -133.336022          0.118136381           82.0375918       0.000126395215          -166.374243
      0.000242351654          -122.047748        0.00878959753            4.0253408       0.000126395215          -166.374243         0.0821066335    83.20038840000001

!
           280000000           0.14366573           75.4318608      5.74890076e-005           93.5229326         0.0357002961           73.2608647       0.000244528147          -131.085585
     5.74890076e-005           93.5229326          0.111053711    74.60150470000001       0.000153528583           -143.30347         0.0177272739           51.0200776
        0.0357002961           73.2608647       0.000153528583           -143.30347          0.136088514    74.41686350000001       0.000132942399          -177.680997
      0.000244528147          -131.085585         0.0177272739           51.0200776       0.000132942399          -177.680997         0.0997780098    76.29188259999999

!
           290000000          0.161166407    68.02008290000001      6.47091216e-005    87.58401019999999         0.0498902927    66.93602730000001       0.000245481012          -140.013461
     6.47091216e-005    87.58401019999999          0.128696014           67.9200961       0.000154208881          -153.179554         0.0309005917           57.4616293
        0.0498902927    66.93602730000001       0.000154208881          -153.179554           0.15346857           67.0298213        0.00013885114           171.148765
      0.000245481012          -140.013461         0.0309005917           57.4616293        0.00013885114           171.148765          0.117223997    69.47891560000001

!
           300000000           0.17787383           60.7998618      7.21513828e-005           80.7059974  0.06341579610000001    60.50710779999999       0.000245307569           -148.80588
     7.21513828e-005           80.7059974          0.145871756    61.27779380000001       0.000154065193          -162.935246         0.0443455761           55.9369913
 0.06341579610000001    60.50710779999999       0.000154065193          -162.935246          0.170063136    59.82945469999999       0.000144067496           160.140935
      0.000245307569           -148.80588         0.0443455761           55.9369913       0.000144067496           160.140935          0.134230797           62.7432798

!
           310000000          0.193607444    53.74409189999999 7.960809199999999e-005           73.1573502  0.07611337730000001            54.097865       0.000244136433          -157.442495
7.960809199999999e-005           73.1573502          0.162387491           54.6812036       0.000153175515          -172.546432         0.0574222773           52.0419968
 0.07611337730000001            54.097865       0.000153175515          -172.546432          0.185690289           52.7882486       0.000148565321           149.317682
      0.000244136433          -157.442495         0.0574222773           52.0419968       0.000148565321           149.317682          0.150602817            56.079045

!
           320000000          0.208219686           46.8351075 8.692396940000001e-005           65.1465335         0.0878522236           47.7574265       0.000242116305          -165.908781
8.692396940000001e-005           65.1465335          0.178073234           48.1365531       0.000151635267           178.005246  0.06986221149999999           47.1905388
        0.0878522236           47.7574265       0.000151635267           178.005246          0.200200722    45.88865570000001       0.000152344569            138.69684
      0.000242116305          -165.908781  0.06986221149999999           47.1905388       0.000152344569            138.69684          0.166167437           49.4851702

!
           330000000          0.221594962            40.060052 9.398932280000001e-005           56.8300305  0.09853290739999999    41.50852789999999       0.000239404428          -174.196298
9.398932280000001e-005           56.8300305          0.192785168           41.6487229       0.000149549336            168.73194  0.08149454220000001           41.8941139
 0.09853290739999999    41.50852789999999       0.000149549336            168.73194          0.213476867           39.1181011       0.000155427765           128.291603
      0.000239404428          -174.196298  0.08149454220000001           41.8941139       0.000155427765           128.291603          0.180777828           42.9620876

!
           340000000          0.233646922           33.4083382       0.000100733124           48.3231384          0.108084465           35.3615186       0.000236156037           177.697455
      0.000100733124           48.3231384          0.206406334           35.2207473       0.000147024446            159.63954         0.0921971862           36.3807169
         0.108084465           35.3615186       0.000147024446            159.63954          0.225430298    32.46629459999999       0.000157855341           118.110526
      0.000236156037           177.697455         0.0921971862           36.3807169       0.000157855341           118.110526          0.194313778           36.5100108

!
           350000000          0.244314536           26.8702779       0.000107116299    39.70956509999999          0.116460216    29.31970619999999        0.00023251574           169.769518
      0.000107116299    39.70956509999999          0.218845556           28.8536078       0.000144162623           150.727958          0.101882084           30.7655992
         0.116460216    29.31970619999999       0.000144162623           150.727958          0.235997926           25.9238022       0.000159680542           108.157762
       0.00023251574           169.769518          0.101882084           30.7655992       0.000159680542           108.157762          0.206680783           30.1281001

!
           360000000          0.253557559           20.4363902       0.000113125349           31.0490246           0.12363292           23.3819332       0.000228611271           162.012221
      0.000113125349           31.0490246          0.230035044           22.5462201       0.000141056141           141.991694          0.110487838           25.1112396
          0.12363292           23.3819332       0.000141056141           141.991694          0.245137537           19.4813329       0.000160964493    98.43346170000001
      0.000228611271           162.012221          0.110487838           25.1112396       0.000160964493    98.43346170000001           0.21780779           23.8140999

!
           370000000          0.261351882           14.0971146       0.000118766444            22.383015          0.129589833           17.5441213       0.000224549684           154.414111
      0.000118766444            22.383015          0.239927132           16.2955509        0.00013778409           133.420613          0.117974235    19.45225170000001
         0.129589833           17.5441213        0.00013778409           133.420613           0.25282321           13.1294451       0.000161771815           88.9342762
      0.000224549684           154.414111          0.117974235    19.45225170000001       0.000161771815           88.9342762          0.227644055           17.5642509

!
           380000000          0.267685166    7.842762210000001       0.000124060137           13.7391647          0.134328103            11.800392       0.000220415719           146.960966
      0.000124060137           13.7391647          0.248490611           10.0968138        0.00013441046           125.000865          0.124317413           13.8071394
         0.134328103            11.800392        0.00013441046           125.000865           0.25904099           6.85849728       0.000162167014           79.6538899
      0.000220415719           146.960966          0.124317413           13.8071394       0.000162167014           79.6538899          0.236155582           11.3733638

!
           390000000          0.272553029           1.66361046       0.000129036796           5.13450136          0.137850802    6.144007469999999       0.000216271919           139.636839
      0.000129036796           5.13450136          0.255707047    3.943708580000001       0.000130983518           116.715884          0.129505482    8.184460619999999
         0.137850802    6.144007469999999       0.000130983518           116.715884          0.263785104          0.658744199       0.000162211686           70.5835457