! Tyco Electronics Strada Whisper System
! FEXT_G89_G1112
!! 
!! SYSTEM DESCRIPTION: Daughtercard-Footprint-Connector-Footprint-Daughtercard
!! PCB DESCRIPTION: DC: 140mil, Megtron7N, upper layer route, 15mil stub, 6-6-6mil 4" traces
!! CONNECTOR DESCRIPTION: Next-Gen STRADA Whisper Direct-Plug Orthogonal Connector
!! MODEL DESCRIPTION: Tyco Electronics System 4-port S-parameter 
!! MODEL STATUS: Developmental
!! MODEL GEOMETRY: Channel Model
!! MODEL FREQUENCY RANGE: DC to 60 GHz in 10 MHz frequency steps
!! MODEL EDGE RATE LIMITATION: 8.3 ps (Using conservative 0.5/Fmax rule of thumb)
!! 
!! TIME-DOMAIN TRANSFORM CAUTIONS: 
!! 1.) Do not simulate transient edge rates faster than the number listed above.  Edge rates faster than this number 
!!     contain significant spectral content at frequencies above the model's highest frequency. 
!! 2.) Even when simulating edge rates that are slower than the number listed above, be aware that the best time 
!!     resolution possible with a direct iFFT is (1 / 2Fmax).  As a result, time resolution is typically not adequate 
!!     for most time-domain simulations unless tricks such as windowing are used to minimize leakage and aliasing. 
!! 3.) Because the model has a uniform frequency step, a direct iFFT will result in an impulse that that has a time 
!!     length given by either (1 / Fstep) or (1 / 2Fstep), depending on the transform being used.  Care has been taken 
!!     in selecting the frequency step to ensure a settled impulse response for the model.  Therefore, convolution with 
!!     the model's impulse response should present no issues.  However, if directly concatenating s-parameter models 
!!     in the frequency domain a user must either interpolate necessary interim frequencies or complete impulse response 
!!     zero-padding.  Impulse response zero-padding is more difficult, but more accurate. 
!! 
!! PORT DEFINITIONS: 
!! Port   1  ----->  TX Side	G8     G11     RX Side  <-----  Port   3
!! Port   2  ----->  TX Side	G9     G12     RX Side  <-----  Port   4
!! 
!!!!!!!!!!!!!!!!!!!!!!!!!!!!!!!!!!!!!!!!!!!!!!!!!!!!!!!!!!!!!!!!!!!!!!!!!!!!!!!!!!!!!!!!!!!!!!!!!!!!!!!!!!!!!!!!!!!!!!!!
! Touchstone data
! Created: 10-Dec-2018 by IdEM R2012 (8.0.5)
# Hz S MA R 50

!
                   0         0.0276104757                    0      5.27206903e-006                  180        0.00199318505                    0      2.34627245e-006                  180
     5.27206903e-006                  180         0.0252594283                    0      1.77343346e-005                  180        0.00154306297                    0
       0.00199318505                    0      1.77343346e-005                  180         0.0277289835                    0       5.5029098e-006                  180
     2.34627245e-006                  180        0.00154306297                    0       5.5029098e-006                  180         0.0254599408                    0

!
            10000000         0.0299547763           13.2506347      6.00131325e-006           -166.61295         0.0140282695           74.7986993      3.88602702e-006          -136.568261
     6.00131325e-006           -166.61295         0.0279039813           15.9900937      1.80968966e-005           164.395106         0.0135114387    76.74675120000001
        0.0140282695           74.7986993      1.80968966e-005           164.395106         0.0301808869           13.7721879       1.5056823e-005           103.624268
     3.88602702e-006          -136.568261         0.0135114387    76.74675120000001       1.5056823e-005           103.624268         0.0282119198           16.4088228

!
            20000000         0.0350516589           21.7291351      7.83054708e-006          -162.638432         0.0276016195           71.8419256 6.599430269999999e-006          -129.722268
     7.83054708e-006          -162.638432         0.0336510985           25.8315515      1.92131544e-005           149.336958         0.0266738731           73.3448542
        0.0276016195           71.8419256      1.92131544e-005           149.336958         0.0355337164           22.5038578      2.85812904e-005           85.5084846
6.599430269999999e-006          -129.722268         0.0266738731           73.3448542      2.85812904e-005           85.5084846         0.0342086738           26.4043811

!
            30000000         0.0415738578            25.373913      1.02631345e-005           -166.17597         0.0407786198            66.218045 9.476552549999999e-006          -132.683433
     1.02631345e-005           -166.17597         0.0409030075           29.9853572      2.10385564e-005            135.20306         0.0394715588    67.79967139999999
        0.0407786198            66.218045      2.10385564e-005            135.20306         0.0423685711           26.2151688      4.24694186e-005           74.0713449
9.476552549999999e-006          -132.683433         0.0394715588    67.79967139999999      4.24694186e-005           74.0713449         0.0417612535    30.55423079999999

!
            40000000         0.0485062709           25.6038427      1.30682298e-005          -173.710552         0.0533294049    59.93897549999999      1.23359068e-005          -138.744484
     1.30682298e-005          -173.710552         0.0485745392           30.4559424      2.35211786e-005           122.096471         0.0517102621           61.7358048
        0.0533294049    59.93897549999999      2.35211786e-005           122.096471  0.04962641250000001           26.4442384      5.64995782e-005    64.43092729999999
     1.23359068e-005          -138.744484         0.0517102621           61.7358048      5.64995782e-005    64.43092729999999         0.0497464336             30.97364

!
            50000000         0.0552025724           23.6356756      1.61648883e-005           176.745631  0.06506723590000001    53.41424910000001      1.51133973e-005          -146.118042
     1.61648883e-005           176.745631  0.05603386219999999    28.70005829999999      2.66155974e-005            109.92356  0.06322626770000001           55.4838975
 0.06506723590000001    53.41424910000001      2.66155974e-005            109.92356         0.0566459511           24.4631394      7.06426376e-005           55.5189368
     1.51133973e-005          -146.118042  0.06322626770000001           55.4838975      7.06426376e-005           55.5189368         0.0575208419    29.16033570000001

!
            60000000         0.0612460397           20.2510204      1.95266835e-005           166.196185  0.07582827609999999    46.78111950000001      1.77705945e-005          -154.153323
     1.95266835e-005           166.196185         0.0628933517           25.5743898      3.02886689e-005           98.5051629         0.0738746487           49.1557706
 0.07582827609999999    46.78111950000001      3.02886689e-005           98.5051629         0.0630058273           21.0729922 8.490573549999999e-005           46.9684524
     1.77705945e-005          -154.153323         0.0738746487           49.1557706 8.490573549999999e-005           46.9684524         0.0646936114    25.98189380000001

!
            70000000         0.0663517303           15.9232396       2.3144294e-005           155.162218         0.0854695515           40.0973511      2.02773139e-005          -162.559776
      2.3144294e-005           155.162218         0.0688935604           21.5737305      3.45191832e-005            87.652452  0.08352846410000001           42.7994016
        0.0854695515           40.0973511      3.45191832e-005            87.652452         0.0684197069           16.7536869 9.930812020000001e-005             38.61817
     2.02773139e-005          -162.559776  0.08352846410000001           42.7994016 9.930812020000001e-005             38.61817         0.0710045255           21.9347028

!
            80000000  0.07031492659999999           10.9384575      2.70117329e-005           143.923929  0.09386809390000001           33.3896736      2.26064518e-005          -171.188264
     2.70117329e-005           143.923929         0.0738490062           16.9919802      3.92951517e-005           77.2013125         0.0920783395    36.43781709999999
 0.09386809390000001           33.3896736      3.92951517e-005           77.2013125  0.07268247430000001           11.7940999       0.000113874686           30.3842696
     2.26064518e-005          -171.188264         0.0920783395    36.43781709999999       0.000113874686           30.3842696  0.07626813279999999           17.3117175

!
            90000000         0.0729843739           5.46983768      3.11211196e-005           132.633555          0.100919687           26.6701158       2.4731783e-005          -179.953285
     3.11211196e-005           132.633555  0.07762200400000001           12.0097673      4.46108546e-005           67.0210414  0.09943150720000001            30.082213
         0.100919687           26.6701158      4.46108546e-005           67.0210414         0.0756427207           6.36977263        0.00012863321           22.2170295
      2.4731783e-005          -179.953285  0.09943150720000001            30.082213        0.00012863321           22.2170295         0.0803470654           12.2920597

!
           100000000         0.0742474829          -0.38088586       3.5460539e-005           121.371439          0.106537254            19.942761      2.66267525e-005           171.200004
      3.5460539e-005           121.371439  0.08010873640000001           6.74116854      5.04642675e-005            57.011643           0.10551039    23.73741130000001
         0.106537254            19.942761      5.04642675e-005            57.011643         0.0771876224          0.585948505       0.000143612358           14.0833477
     2.66267525e-005           171.200004           0.10551039    23.73741130000001       0.000143612358           14.0833477  0.08313792590000001    6.988259930000002

!
           110000000         0.0740215565   -6.561324170000001      4.00129144e-005           110.175966          0.110649202           13.2070661      2.82637909e-005           162.312132
     4.00129144e-005           110.175966         0.0812309473           1.25927991       5.6854796e-005    47.09770639999999          0.110251002           17.4045902
         0.110649202           13.2070661       5.6854796e-005    47.09770639999999         0.0772339241          -5.49919904       0.000158839621    5.958821689999999
     2.82637909e-005           162.312132          0.110251002           17.4045902       0.000158839621    5.958821689999999         0.0845628913           1.47190971

!
           120000000          0.072248532          -13.0585376 4.475507589999999e-005    99.06064280000001          0.113198096           6.45978186      2.96140915e-005           153.418917
4.475507589999999e-005    99.06064280000001         0.0809305235   -4.389277819999999      6.37810858e-005           37.2223467           0.11360147           11.0829299
         0.113198096           6.45978186      6.37810858e-005           37.2223467  0.07572237110000001          -11.8630938       0.000174338879          -2.17611527
     2.96140915e-005           153.418917           0.11360147           11.0829299       0.000174338879          -2.17611527         0.0845642347          -4.21189361

!
           130000000          0.068892366          -19.8988639       4.9656728e-005    88.02443100000001          0.114139935         -0.303747487      3.06479321e-005           144.558346
      4.9656728e-005    88.02443100000001         0.0791658412          -10.1759049      7.12387107e-005           27.3423556           0.11552092    4.770813239999999
         0.114139935         -0.303747487      7.12387107e-005           27.3423556  0.07261458609999999          -18.5157027       0.000190127475          -10.3381308
     3.06479321e-005           144.558346           0.11552092    4.770813239999999       0.000190127475          -10.3381308          0.083100622          -10.0362127

!
           140000000         0.0639391597          -27.1596525      5.46792781e-005    77.05831790000001          0.113444281   -7.088577009999999      3.13357039e-005           135.776731
     5.46792781e-005    77.05831790000001         0.0759094286          -16.0851517 7.921764029999999e-005           17.4247144          0.115978944          -1.53313019
         0.113444281   -7.088577009999999 7.921764029999999e-005           17.4247144         0.0678922183           -25.505323       0.000206212807          -18.5419147
     3.13357039e-005           135.776731          0.115978944          -1.53313019       0.000206212807          -18.5419147  0.08014473290000002          -15.9875693

!
           150000000         0.0574012339          -35.0031818      5.97746361e-005    66.14970960000001          0.111095322          -13.8992862      3.16498867e-005           127.135401
     5.97746361e-005    66.14970960000001         0.0711467705          -22.1123576 8.769948659999999e-005           7.44427313          0.114955777          -7.82896485
         0.111095322          -13.8992862 8.769948659999999e-005           7.44427313         0.0615588903          -32.9389448       0.000222588484          -26.8005113
     3.16498867e-005           127.135401          0.114955777          -7.82896485       0.000222588484          -26.8005113         0.0756820344          -22.0638244

!
           160000000         0.0493291332          -43.7651659      6.48841892e-005    55.28550439999999          0.107093891          -20.7391471      3.15683158e-005           118.719007
     6.48841892e-005    55.28550439999999         0.0648761808          -28.2637828      9.66546305e-005          -2.61767725          0.112443233          -14.1142295
         0.107093891          -20.7391471      9.66546305e-005          -2.61767725         0.0536468309   -41.03591170000001       0.000239230255          -35.1252806
     3.15683158e-005           118.719007          0.112443233          -14.1142295       0.000239230255          -35.1252806         0.0697106436          -28.2746536

!
           170000000          0.039845628   -54.20869620000001 6.993822509999999e-005           44.4543372          0.101460298          -27.6092613      3.10792406e-005           110.646602
6.993822509999999e-005           44.4543372         0.0571096916          -34.5607776       0.000106039427          -12.7741898          0.108446414          -20.3823664
         0.101460298          -27.6092613       0.000106039427          -12.7741898  0.04423464740000001          -50.2769533       0.000256092008          -43.5256097
     3.10792406e-005           110.646602          0.108446414          -20.3823664       0.000256092008          -43.5256097  0.06224224530000001          -34.6461435

!
           180000000         0.0292642032          -68.4039363 7.485611880000001e-005           33.6482625  0.09423772050000001          -34.5075662      3.01889375e-005           103.086664
7.485611880000001e-005           33.6482625  0.04787492460000001          -41.0538501        0.00011579379          -23.0330142          0.102986087           -26.620482
 0.09423772050000001          -34.5075662        0.00011579379          -23.0330142         0.0335030994   -61.89607850000001       0.000273102307   -52.00846110000001
     3.01889375e-005           103.086664          0.102986087           -26.620482       0.000273102307   -52.00846110000001         0.0533040757          -41.2348807

!
           190000000         0.0186758441          -93.5641945      7.95475897e-005            22.864017         0.0854957428          -41.4275075      2.89330258e-005    96.27645630000001
     7.95475897e-005            22.864017         0.0372180885          -47.8698483       0.000125839556          -33.3966884  0.09610159829999999          -32.8058315
        0.0854957428          -41.4275075       0.000125839556          -33.3966884         0.0219840988   -80.02565730000001 0.0002901620700000001   -60.57783260000002
     2.89330258e-005    96.27645630000001  0.09610159829999999          -32.8058315 0.0002901620700000001   -60.57783260000002          0.042942222   -48.17072090000001

!
           200000000         0.0133985135          -150.198368 8.391528070000001e-005           12.1039155         0.0753334967          -48.3558784      2.73930919e-005    90.54228980000001
8.391528070000001e-005           12.1039155         0.0252096645   -55.41742299999999        0.00013608006          -43.8625171  0.08785412419999999          -38.8997463
        0.0753334967          -48.3558784        0.00013608006          -43.8625171         0.0123854208          -123.268498       0.000307144101   -69.23420470000001
     2.73930919e-005    90.54228980000001  0.08785412419999999          -38.8997463       0.000307144101   -69.23420470000001         0.0312279742          -55.8152798

!
           210000000         0.0214903901            156.80383      8.78587679e-005           1.37638246         0.0638817859          -55.2684119       2.5720045e-005    86.30417380000002
     8.78587679e-005           1.37638246         0.0119720402          -66.0701854       0.000146401387          -54.4225622         0.0783301107   -44.83606040000001
        0.0638817859          -55.2684119       0.000146401387          -54.4225622         0.0156954971           164.923596       0.000323895154          -77.9740616
      2.5720045e-005    86.30417380000002         0.0783301107   -44.83606040000001       0.000323895154          -77.9740616          0.018281529   -65.66408420000001

!
           220000000         0.0360488078           133.295972      9.12798935e-005          -9.30390469  0.05130357910000001          -62.1184986      2.41619564e-005           84.0145654
     9.12798935e-005          -9.30390469        0.00311465157           148.635141       0.000156675598          -65.0637574         0.0676450307          -50.4965392
 0.05130357910000001          -62.1184986       0.000156675598          -65.0637574         0.0294490116           134.001413       0.000340241075          -86.7895729
     2.41619564e-005           84.0145654         0.0676450307          -50.4965392       0.000340241075          -86.7895729        0.00470839932          -98.0760772

!
           230000000         0.0527090574           119.341257      9.40890423e-005          -19.9162933         0.0377924917            -68.80001      2.30795953e-005           83.9312365
     9.40890423e-005          -19.9162933         0.0181806561           114.517894       0.000166766067          -75.7682349         0.0559486646   -55.65157680000001
        0.0377924917            -68.80001       0.000166766067          -75.7682349         0.0458704285           118.656466       0.000355995187   -95.66852020000002
     2.30795953e-005           83.9312365         0.0559486646   -55.65157680000001       0.000355995187   -95.66852020000002         0.0116544535           122.936512

!
           240000000         0.0704084581           108.680591 9.621169660000001e-005          -30.4348675         0.0235699252   -74.96971390000002      2.29035348e-005           85.6811192
9.621169660000001e-005          -30.4348675  0.03449426540000001           105.456965       0.000176534669          -86.5139243         0.0434373213          -59.7909607
        0.0235699252   -74.96971390000002       0.000176534669          -86.5139243         0.0633998021           107.674259       0.000370969565          -104.594529
     2.29035348e-005           85.6811192         0.0434373213          -59.7909607       0.000370969565          -104.594529         0.0275881006           108.758267

!
           250000000         0.0886737839           99.4775722 9.759439929999998e-005          -40.8295765 0.008894990429999999          -78.0826416       2.3987598e-005    87.98423630000001
9.759439929999998e-005          -40.8295765         0.0515081379    97.96280520000002       0.000185850245          -97.2754417         0.0303993403          -61.5089357
0.008894990429999999          -78.0826416       0.000185850245          -97.2754417  0.08151020069999999           98.4046063       0.000384988261          -113.547636
      2.3987598e-005    87.98423630000001         0.0303993403          -61.5089357       0.000384988261          -113.547636         0.0443436385           100.101154

!
           260000000          0.107164294    91.04550329999999 9.820918999999999e-005   -51.06771189999999 0.006175288619999999           79.5330402      2.64345392e-005           89.1959964
9.820918999999999e-005   -51.06771189999999         0.0690006789           90.8965384       0.000194597394          -108.025243         0.0174814779          -55.2280281
0.006175288619999999           79.5330402       0.000194597394          -108.025243          0.099854295           89.9777746       0.000397900983          -122.505178
     2.64345392e-005           89.1959964         0.0174814779          -55.2280281       0.000397900983          -122.505178         0.0616143053    92.54736130000001

!
           270000000          0.125584382    83.08034309999999 9.805572759999999e-005          -61.1156188          0.021042341           79.0299267 3.007429900000001e-005           88.2878908
9.805572759999999e-005          -61.1156188           0.08675068    84.00793899999999        0.00020268447          -118.734966 0.008634842270000002   -7.944046229999998
         0.021042341           79.0299267        0.00020268447          -118.734966          0.118136381           82.0375918       0.000409595455          -131.442929
3.007429900000001e-005           88.2878908 0.008634842270000002   -7.944046229999998       0.000409595455          -131.442929         0.0791673353    85.39709320000002

!
           280000000           0.14366573           75.4318608      9.71606504e-005          -70.9404772         0.0357002961           73.2608647       3.4599835e-005           85.1239408
     9.71606504e-005          -70.9404772          0.104533929           77.2172822       0.000210049724          -129.376862          0.015845256    49.26496330000001
        0.0357002961           73.2608647       0.000210049724          -129.376862          0.136088514    74.41686350000001       0.000420006741          -140.336397
      3.4599835e-005           85.1239408          0.015845256    49.26496330000001       0.000420006741          -140.336397  0.09677545410000001    78.44621979999999

!
           290000000          0.161166407    68.02008290000001      9.55741932e-005   -80.51196530000001         0.0498902927    66.93602730000001      3.96983752e-005    80.06616889999999
     9.55741932e-005   -80.51196530000001          0.122129307    70.49637420000001       0.000216664758          -139.925178         0.0288260381           58.1150917
        0.0498902927    66.93602730000001       0.000216664758          -139.925178           0.15346857           67.0298213       0.000429122264          -149.162139
     3.96983752e-005    80.06616889999999         0.0288260381           58.1150917       0.000429122264          -149.162139          0.114216151            71.619209

!
           300000000           0.17787383           60.7998618 9.336455619999998e-005          -89.8036087  0.06341579610000001    60.50710779999999       4.5106612e-005           73.5853516
9.336455619999998e-005          -89.8036087          0.139325957           63.8363717       0.000222534955          -150.357387         0.0422715076           57.1681905
 0.06341579610000001    60.50710779999999       0.000222534955          -150.357387          0.170063136    59.82945469999999       0.000436981967          -157.898975
      4.5106612e-005           73.5853516         0.0422715076           57.1681905       0.000436981967          -157.898975          0.131277378           64.8854975

!
           310000000          0.193607444    53.74409189999999      9.06108774e-005          -98.7936289  0.07611337730000001            54.097865      5.06181133e-005           66.0917843
     9.06108774e-005          -98.7936289          0.155929767    57.23628580000001       0.000227697021          -160.655152         0.0554226788            53.494946
 0.07611337730000001            54.097865       0.000227697021          -160.655152          0.185690289           52.7882486       0.000443673899          -166.528995
     5.06181133e-005           66.0917843         0.0554226788            53.494946       0.000443673899          -166.528995          0.147763628    58.23282420000001

!
           320000000          0.208219686           46.8351075 8.739582549999999e-005          -107.465138         0.0878522236           47.7574265      5.60758734e-005           57.9000492
8.739582549999999e-005          -107.465138          0.171768375           50.6980326       0.000232214203          -170.804987  0.06799082969999999           48.7554348
        0.0878522236           47.7574265       0.000232214203          -170.804987          0.200200722    45.88865570000001       0.000449326154          -175.038285
     5.60758734e-005           57.9000492  0.06799082969999999           48.7554348       0.000449326154          -175.038285          0.163500837           51.6567311

!
           330000000          0.221594962            40.060052 8.379877470000001e-005          -115.805547  0.09853290739999999    41.50852789999999 6.136336660000001e-005    49.24039950000001
8.379877470000001e-005          -115.805547          0.186694284           44.2240258       0.000236170022           179.201423         0.0797967565           43.5263913
 0.09853290739999999    41.50852789999999       0.000236170022           179.201423          0.213476867           39.1181011       0.000454096557           176.582657
6.136336660000001e-005    49.24039950000001         0.0797967565           43.5263913       0.000454096557           176.582657          0.178339535            45.155802

!
           340000000          0.233646922           33.4083382 7.989031140000001e-005           -123.80509          0.108084465           35.3615186      6.63970502e-005           40.2788645
7.989031140000001e-005           -123.80509          0.200586035           37.8159388       0.000239661395           169.367197  0.09071219390000002           38.0590294
         0.108084465           35.3615186       0.000239661395           169.367197          0.225430298    32.46629459999999 0.0004581615219999999           168.338795
     6.63970502e-005           40.2788645  0.09071219390000002           38.0590294 0.0004581615219999999           168.338795           0.19215609           38.7293107

!
           350000000          0.244314536           26.8702779      7.57285254e-005          -131.454316          0.116460216    29.31970619999999       7.1120257e-005    31.13482000000001
     7.57285254e-005          -131.454316           0.21334762            31.474083       0.000242791939           159.690501          0.100643579    32.47881579999999
         0.116460216    29.31970619999999       0.000242791939           159.690501          0.235997926           25.9238022       0.000461705367           160.230697
      7.1120257e-005    31.13482000000001          0.100643579    32.47881579999999       0.000461705367           160.230697           0.20485222           32.3760286

!
           360000000          0.253557559           20.4363902 7.135725810000001e-005          -138.740372           0.12363292           23.3819332      7.54980365e-005    21.89417690000001
7.135725810000001e-005          -138.740372          0.224906496           25.1971477       0.000245665996            150.16498          0.109524592           26.8535683
          0.12363292           23.3819332       0.000245665996            150.16498          0.245137537           19.4813329       0.000464910963           152.254862
     7.54980365e-005    21.89417690000001          0.109524592           26.8535683       0.000464910963           152.254862          0.216353107           26.0936514

!
           370000000          0.261351882           14.0971146 6.680628570000001e-005           -145.64166          0.129589833           17.5441213      7.95126886e-005           12.6188477
6.680628570000001e-005           -145.64166          0.235210657           18.9821604 0.0002483836970000001           140.780314          0.117310843           21.2211271
         0.129589833           17.5441213 0.0002483836970000001           140.780314           0.25282321           13.1294451        0.00046795221           144.404193
     7.95126886e-005           12.6188477          0.117310843           21.2211271        0.00046795221           144.404193          0.226604551           19.8785799

!
           380000000          0.267685166    7.842762210000001      6.20933704e-005          -152.120112          0.134328103            11.800392      8.31599185e-005           3.35349339
     6.20933704e-005          -152.120112          0.244225186           12.8245833       0.000251037147           131.522855          0.123975199           15.6021871
         0.134328103            11.800392       0.000251037147           131.522855           0.25904099           6.85849728       0.000470988437           136.668536
     8.31599185e-005           3.35349339          0.123975199           15.6021871       0.000470988437           136.668536          0.235569597           13.7259093

!
           390000000          0.272553029           1.66361046      5.72282599e-005            -158.1096          0.137850802    6.144007469999999      8.64456213e-005          -5.86963288
     5.72282599e-005            -158.1096   0.2519286849999999           6.71848853       0.000253707643           122.376278          0.129503491           10.0069222