! Tyco Electronics Strada Whisper System
! NEXT_F1112_G1112
!! 
!! SYSTEM DESCRIPTION: Daughtercard-Footprint-Connector-Footprint-Daughtercard
!! PCB DESCRIPTION: DC: 140mil, Megtron7N, upper layer route, 15mil stub, 6-6-6mil 10" traces
!! CONNECTOR DESCRIPTION: Next-Gen STRADA Whisper Direct-Plug Orthogonal Connector
!! MODEL DESCRIPTION: Tyco Electronics System 4-port S-parameter 
!! MODEL STATUS: Developmental
!! MODEL GEOMETRY: Channel Model
!! MODEL FREQUENCY RANGE: DC to 60 GHz in 10 MHz frequency steps
!! MODEL EDGE RATE LIMITATION: 8.3 ps (Using conservative 0.5/Fmax rule of thumb)
!! 
!! TIME-DOMAIN TRANSFORM CAUTIONS: 
!! 1.) Do not simulate transient edge rates faster than the number listed above.  Edge rates faster than this number 
!!     contain significant spectral content at frequencies above the model's highest frequency. 
!! 2.) Even when simulating edge rates that are slower than the number listed above, be aware that the best time 
!!     resolution possible with a direct iFFT is (1 / 2Fmax).  As a result, time resolution is typically not adequate 
!!     for most time-domain simulations unless tricks such as windowing are used to minimize leakage and aliasing. 
!! 3.) Because the model has a uniform frequency step, a direct iFFT will result in an impulse that that has a time 
!!     length given by either (1 / Fstep) or (1 / 2Fstep), depending on the transform being used.  Care has been taken 
!!     in selecting the frequency step to ensure a settled impulse response for the model.  Therefore, convolution with 
!!     the model's impulse response should present no issues.  However, if directly concatenating s-parameter models 
!!     in the frequency domain a user must either interpolate necessary interim frequencies or complete impulse response 
!!     zero-padding.  Impulse response zero-padding is more difficult, but more accurate. 
!! 
!! PORT DEFINITIONS: 
!! Port   1  ----->  RX Side	F11     G11     RX Side  <-----  Port   3
!! Port   2  ----->  RX Side	F12     G12     RX Side  <-----  Port   4
!! 
!!!!!!!!!!!!!!!!!!!!!!!!!!!!!!!!!!!!!!!!!!!!!!!!!!!!!!!!!!!!!!!!!!!!!!!!!!!!!!!!!!!!!!!!!!!!!!!!!!!!!!!!!!!!!!!!!!!!!!!!
! Touchstone data
! Created: 10-Dec-2018 by IdEM R2012 (8.0.5)
# Hz S MA R 50

!
                   0         0.0458690179                    0      2.65694975e-005                    0        0.00173984742                    0      2.43626084e-005                    0
     2.65694975e-005                    0         0.0441120632                    0      2.32551651e-005                    0        0.00160740291                    0
       0.00173984742                    0      2.32551651e-005                    0         0.0461230118                    0       2.6595259e-005                    0
     2.43626084e-005                    0        0.00160740291                    0       2.6595259e-005                    0         0.0443304845                    0

!
            10000000         0.0540613715           16.2693564      2.74335719e-005          -33.1442537         0.0287506504           72.6860336      2.51182743e-005          -32.3115088
     2.74335719e-005          -33.1442537         0.0527969065           17.8381043      2.37905868e-005   -30.34735039999999         0.0285000428           73.1472732
        0.0287506504           72.6860336      2.37905868e-005   -30.34735039999999          0.054467951    16.46509010000001 2.610370080000001e-005           -22.192142
     2.51182743e-005          -32.3115088         0.0285000428           73.1472732 2.610370080000001e-005           -22.192142         0.0531823418           18.0615204

!
            20000000         0.0699369656           20.5185345      3.00438677e-005          -64.1820785         0.0555064831           60.6645377      2.73632175e-005          -62.3437338
     3.00438677e-005          -64.1820785  0.06956386740000001            22.498442      2.54750073e-005   -59.09279039999999  0.05509644469999999           61.2403409
        0.0555064831           60.6645377      2.54750073e-005   -59.09279039999999         0.0706597761           20.7477041      2.49136196e-005          -44.7262266
     2.73632175e-005          -62.3437338  0.05509644469999999           61.2403409      2.49136196e-005          -44.7262266         0.0702868621            22.755529

!
            30000000         0.0862063513           16.7728488 3.403146620000001e-005   -92.16952620000001  0.07880233490000001           47.6522791      3.07040702e-005           -89.158089
3.403146620000001e-005   -92.16952620000001           0.08680106           18.8627123      2.81358398e-005   -85.43230029999999         0.0783804848           48.4213909
 0.07880233490000001           47.6522791      2.81358398e-005   -85.43230029999999         0.0872827202           16.9855609      2.32826331e-005          -68.1530269
     3.07040702e-005           -89.158089         0.0783804848           48.4213909      2.32826331e-005          -68.1530269         0.0878983844           19.1026114

!
            40000000  0.09906276529999999    9.087482509999999      3.91037929e-005   -117.2657750000001  0.09738791050000001           34.5162392      3.48336593e-005          -112.947797
     3.91037929e-005   -117.2657750000001           0.10075037           11.2979914        3.165313e-005          -109.345015         0.0971588614           35.5023071
 0.09738791050000001           34.5162392        3.165313e-005          -109.345015           0.10049942           9.28105747       2.1618428e-005          -93.2477992
     3.48336593e-005          -112.947797         0.0971588614           35.5023071       2.1618428e-005          -93.2477992          0.102231709            11.519939

!
            50000000          0.106600888  -0.6129229470000001      4.51524704e-005          -140.085777          0.110371066           21.4092915      3.96364651e-005          -134.371146
     4.51524704e-005          -140.085777          0.109577326           1.78051019      3.60197161e-005          -131.272507           0.11058168           22.6274405
         0.110371066           21.4092915      3.60197161e-005          -131.272507          0.108400415         -0.433150996      2.04845944e-005           -120.81409
     3.96364651e-005          -134.371146           0.11058168           22.6274405      2.04845944e-005           -120.81409           0.11145058           1.99046684

!
            60000000          0.107812696          -11.4781981      5.22234542e-005          -161.307009          0.117155411           8.34828076      4.51487984e-005          -154.163807
     5.22234542e-005          -161.307009          0.112319323   -8.826871969999997 4.131971710000001e-005          -151.825075          0.118083702    9.811804089999999
         0.117155411           8.34828076 4.131971710000001e-005          -151.825075           0.10997932          -11.3063254      2.06045616e-005          -150.897249
     4.51487984e-005          -154.163807          0.118083702    9.811804089999999      2.06045616e-005          -150.897249          0.114595185          -8.62368021

!
            70000000          0.102176327          -23.1525636      6.04360214e-005           178.462865          0.117374894          -4.68515083 5.146503969999999e-005          -173.005471
     6.04360214e-005           178.462865          0.108477243          -20.1476394      4.76632067e-005            -171.6135          0.119317375          -2.96638637
         0.117374894          -4.68515083      4.76632067e-005            -171.6135          0.104716505          -22.9821267      2.27240437e-005           178.118877
5.146503969999999e-005          -173.005471          0.119317375          -2.96638637      2.27240437e-005           178.118877          0.111169089          -19.9473258

!
            80000000         0.0894907491          -35.5447488      6.98901823e-005           158.720791          0.110870157          -17.6935849      5.86354094e-005           168.530415
     6.98901823e-005           158.720791  0.09784673350000001          -32.0383127      5.51071078e-005           168.842137          0.114119684          -15.7212674
         0.110870157          -17.6935849      5.51071078e-005           168.842137         0.0924114966          -35.3651089       2.7324678e-005           148.648713
     5.86354094e-005           168.530415          0.114119684          -15.7212674       2.7324678e-005           148.648713           0.10096847          -31.8374579

!
            90000000         0.0698535914   -48.80286950000001      8.05712364e-005           139.084003  0.09773306629999999          -30.6029621 6.657221040000001e-005           150.012792
     8.05712364e-005           139.084003         0.0804794149           -44.493815       6.3576777e-005           149.163369          0.102538878          -28.4110606
 0.09773306629999999          -30.6029621       6.3576777e-005           149.163369         0.0731590709   -48.58368410000001      3.45183516e-005           121.843383
6.657221040000001e-005           150.012792          0.102538878          -28.4110606      3.45183516e-005           121.843383          0.084041907          -44.2862979

!
           100000000         0.0437529377          -63.7757029 9.226141300000001e-005           119.305882          0.078417903          -43.1296995      7.49808122e-005           131.182491
9.226141300000001e-005           119.305882         0.0567375678           -57.693514      7.28017614e-005           129.138239  0.08492324900000001          -40.8451723
         0.078417903          -43.1296995      7.28017614e-005           129.138239  0.04743743769999999   -63.35671659999999       4.4169352e-005           97.3715364
     7.49808122e-005           131.182491  0.08492324900000001          -40.8451723       4.4169352e-005           97.3715364         0.0607440413          -57.4523438

!
           110000000         0.0125313662          -91.2152396        0.00010448738           99.2890984         0.0538977948          -54.2867693 8.334329690000001e-005           111.967375
       0.00010448738           99.2890984         0.0274139061          -72.8799607 8.229097149999999e-005           108.726618         0.0620526705          -52.3915868
        0.0538977948          -54.2867693 8.229097149999999e-005           108.726618         0.0164525793          -86.8067195      5.59492212e-005    74.46485180000001
8.334329690000001e-005           111.967375         0.0620526705          -52.3915868      5.59492212e-005    74.46485180000001         0.0318523999          -72.3138616

!
           120000000         0.0244157687           105.029919       0.000116548155           79.0858872         0.0260056109          -58.6254468      9.09878045e-005           92.4758157
      0.000116548155           79.0858872        0.00671507389           116.532624      9.13816527e-005           88.0475217         0.0353367553   -60.31863660000001
        0.0260056109          -58.6254468      9.13816527e-005           88.0475217         0.0201275214           107.889414      6.92975015e-005    52.55309610000001
     9.09878045e-005           92.4758157         0.0353367553   -60.31863660000001      6.92975015e-005    52.55309610000001        0.00274335176           154.707346

!
           130000000         0.0621350443    85.30587010000002       0.000127651991             58.87528         0.0101688434           34.5148539      9.72521758e-005    72.96384860000001
      0.000127651991             58.87528         0.0427447239           87.7777554      9.93787396e-005    67.34592410000001        0.00947983627           -27.850846
        0.0101688434           34.5148539      9.93787396e-005    67.34592410000001  0.05743626749999999    85.99937319999999      8.34357872e-005           31.3839522
     9.72521758e-005    72.96384860000001        0.00947983627           -27.850846      8.34357872e-005           31.3839522         0.0375401076    88.73162929999999

!
           140000000         0.0998983968           70.1769316       0.000137130638           38.9149665         0.0373371262    62.16606770000001        0.00010169291    53.77679479999999
      0.000137130638           38.9149665         0.0795818333           73.0683083       0.000105748209           46.9387292         0.0265864676           60.9329144
        0.0373371262    62.16606770000001       0.000105748209           46.9387292         0.0949088605           70.6137305       9.7506546e-005            10.943402
       0.00010169291    53.77679479999999         0.0265864676           60.9329144       9.7506546e-005            10.943402         0.0740418081           73.6194855

!
           150000000          0.135423647    56.00678549999999       0.000144634274           19.4784416         0.0653278014           54.0834899       0.000104242422           35.2754289
      0.000144634274           19.4784416          0.114903677    59.27130419999999       0.000110276842           27.1490135         0.0545843061           56.7694997
        0.0653278014           54.0834899       0.000110276842           27.1490135          0.130188972           56.3657462       0.000110787748   -8.662968490000001
      0.000104242422           35.2754289         0.0545843061           56.7694997       0.000110787748   -8.662968490000001          0.109087261           59.7320536

!
           160000000          0.166941211           42.3451637       0.000150209816          0.797191599  0.08991745080000001           42.8478522       0.000105236458            17.763687
      0.000150209816          0.797191599           0.14689829           45.8826775       0.000113119149           8.24570336         0.0800027561    46.37257970000001
 0.08991745080000001           42.8478522       0.000113119149           8.24570336          0.161493942           42.6751326       0.000122869849          -27.3106732
      0.000105236458            17.763687         0.0800027561    46.37257970000001       0.000122869849          -27.3106732          0.140854087           46.3152392

!
           170000000           0.19323595           29.0777357       0.000154242131          -16.9753152          0.109884735            30.986967       0.000105313382            1.4322957
      0.000154242131          -16.9753152          0.174226642    32.82291250000001       0.000114723594          -9.59632001          0.101299586           34.8300083
         0.109884735            30.986967       0.000114723594          -9.59632001          0.187595866    29.40007450000001       0.000133713196          -44.9195173
      0.000105313382            1.4322957          0.101299586           34.8300083       0.000133713196          -44.9195173            0.1679916            33.251047

!
           180000000          0.213613457           16.1387024       0.000157319622   -33.77379609999999           0.12463226           19.0719185       0.000105253409          -13.6765009
      0.000157319622   -33.77379609999999          0.196048433           20.0569766       0.000115698123          -26.3118048            0.1177046           23.0691584
          0.12463226           19.0719185       0.000115698123          -26.3118048          0.207787043           16.4666822       0.000143590466   -61.47914500000001
      0.000105253409          -13.6765009            0.1177046           23.0691584       0.000143590466   -61.47914500000001          0.189645303           20.4943362

!
           190000000          0.227770487           3.45740492       0.000160104388   -49.61359030000001          0.133932345    7.254038310000001        0.00010582788          -27.6831499
      0.000160104388   -49.61359030000001          0.211935059    7.537906059999999       0.000116684674          -41.9428884          0.128863001           11.3439634
         0.133932345    7.254038310000001       0.000116684674          -41.9428884          0.221752281    3.802120930000001       0.000152976849   -77.04870440000001
       0.00010582788          -27.6831499          0.128863001           11.3439634       0.000152976849   -77.04870440000001           0.20537229           7.99539486

!
           200000000          0.235645985   -9.047694559999998       0.000163249554          -64.5775726          0.137753825          -4.45432415       0.000107689073          -40.8603171
      0.000163249554          -64.5775726          0.221737346          -4.79869324       0.000118276017   -56.62804310000001          0.134663246         -0.291350092
         0.137753825          -4.45432415       0.000118276017   -56.62804310000001          0.229421491          -8.67465773       0.000162447194          -91.7453373
      0.000107689073          -40.8603171          0.134663246         -0.291350092       0.000162447194          -91.7453373          0.215011081           -4.3099687

!
           210000000          0.237307951          -21.4625903       0.000167359928          -78.8059478          0.136148009          -16.0875298       0.000111298296   -53.59017860000001
      0.000167359928          -78.8059478          0.225468191          -17.0276798       0.000120969407          -70.5865896          0.135113606          -11.8543297
         0.136148009          -16.0875298       0.000120969407          -70.5865896          0.230857578          -21.0472848       0.000172602359          -105.731863
      0.000111298296   -53.59017860000001          0.135113606          -11.8543297       0.000172602359          -105.731863            0.2185656          -16.4945271

!
           220000000          0.232899904   -33.86794340000001       0.000172966855          -92.4896127          0.129206534          -27.6769564       0.000116881946          -66.2907015
      0.000172966855          -92.4896127          0.223232444          -29.2242298       0.000125134301          -84.0966184          0.130279274          -23.3778504
         0.129206534          -27.6769564       0.000125134301          -84.0966184          0.226203617   -33.39204709999999          0.000184014          -119.206739
      0.000116881946          -66.2907015          0.130279274          -23.3778504          0.000184014          -119.206739          0.216135831          -28.6294616

!
           230000000           0.22265061   -46.32816560000001       0.000180486679          -105.860217          0.117090255          -39.2055834       0.000124409599          -79.3312502
      0.000180486679          -105.860217          0.215214126          -41.4528382       0.000130975113   -97.46118559999999          0.120284464   -34.86908770000001
         0.117090255          -39.2055834       0.000130975113   -97.46118559999999          0.215693118          -45.7661648       0.000197163187          -132.392797
      0.000124409599          -79.3312502          0.120284464   -34.86908770000001       0.000197163187          -132.392797          0.207905536   -40.77264499999999

!
           240000000          0.206939275          -58.8799304       0.000190149547          -119.166967          0.100118105          -50.5372278       0.000133592664          -92.9666383
      0.000190149547          -119.166967           0.20171797          -53.7558018       0.000138486491          -110.961436          0.105372773          -46.2581809
         0.100118105          -50.5372278       0.000138486491          -110.961436          0.199715558   -58.19460050000001       0.000212355098          -145.518134
      0.000133592664          -92.9666383          0.105372773          -46.2581809       0.000212355098          -145.518134          0.194184128          -52.9555289

!
           250000000           0.18639608   -71.52111979999999       0.000201916664          -132.635944         0.0788981971   -61.24392690000001       0.000143908656          -107.306169
      0.000201916664          -132.635944          0.183251506          -66.1414762       0.000147419987          -124.804452  0.08601078920000001   -57.29282619999999
        0.0788981971   -61.24392690000001       0.000147419987          -124.804452          0.178916764   -70.65569480000001       0.000229617558          -158.785253
      0.000143908656          -107.306169  0.08601078920000001   -57.29282619999999       0.000229617558          -158.785253          0.175488901   -65.16821160000001

!
           260000000          0.161999996          -84.2025649       0.000215436791          -146.421661  0.05449975560000001          -69.9743596       0.000154666816          -122.315383
      0.000215436791          -146.421661          0.160619328          -78.5733647       0.000157297675          -139.081748         0.0630191556          -67.2085821
 0.05449975560000001          -69.9743596       0.000157297675          -139.081748          0.154295922   -83.06630800000001       0.000248627306          -172.333456
      0.000154666816          -122.315383         0.0630191556          -67.2085821       0.000248627306          -172.333456          0.152639152          -77.3419715

!
           270000000          0.135120194          -96.8261195       0.000230100742          -160.572472         0.0289515477          -70.5533365        0.00016513218          -137.840963
      0.000230100742          -160.572472          0.134985277          -90.9615429       0.000167506073          -153.754769         0.0377971325          -73.0835299
        0.0289515477          -70.5533365       0.000167506073          -153.754769          0.127245701   -95.26606510000002       0.000268730171             173.7909
       0.00016513218          -137.840963         0.0377971325          -73.0835299       0.000268730171             173.7909           0.12681823          -89.3262606

!
           280000000          0.107453096          -109.253298       0.000245213515           -175.02924         0.0128122713          -13.3207905       0.000174700293          -153.652146
      0.000245213515           -175.02924          0.107854762           -103.15654       0.000177470972          -168.675535         0.0143610958          -52.0065602
        0.0128122713          -13.3207905       0.000177470972          -168.675535  0.09948874410000001          -106.995089       0.000289097579           159.640095
      0.000174700293          -153.652146         0.0143610958          -52.0065602       0.000289097579           159.640095  0.09955714750000001          -100.847645

!
           290000000         0.0808474337          -121.332629       0.000260230327           170.339988         0.0304292934            32.125552       0.000183071068          -169.494116
      0.000260230327           170.339988  0.08095365810000001           -114.94123       0.000186859968           176.361849         0.0209644541    31.24287310000001
        0.0304292934            32.125552       0.000186859968           176.361849  0.07290500920000001          -117.847331       0.000308987011           145.340586
      0.000183071068          -169.494116         0.0209644541    31.24287310000001       0.000308987011           145.340586          0.072620423          -111.405714

!
           300000000  0.05706681970000001          -132.979516       0.000274949484           155.684622  0.05239008190000001           29.6484092       0.000190345492           174.854273
      0.000274949484           155.684622         0.0560286339          -126.008853       0.000195723417           161.553808         0.0437424736    35.75369739999999
 0.05239008190000001           29.6484092       0.000195723417           161.553808  0.04930121060000001          -127.162304       0.000327998298           131.047405
      0.000190345492           174.854273         0.0437424736    35.75369739999999       0.000327998298           131.047405         0.0478324299          -119.938095

!
           310000000         0.0375708118          -144.460354 0.0002895716110000001           141.118134  0.07074217150000001           20.4078007       0.000196994831           159.530395
0.0002895716110000001           141.118134         0.0346333558          -135.914759       0.000204503235           147.024186         0.0642456464           27.7425335
 0.07074217150000001           20.4078007       0.000204503235           147.024186         0.0301945014          -133.834998       0.000346209513           116.895241
      0.000196994831           159.530395         0.0642456464           27.7425335       0.000346209513           116.895241         0.0269680065          -123.474178

!
           320000000         0.0233951423          -157.445293       0.000304609286           126.684043         0.0838624999           9.39861254       0.000203712497           144.557766
      0.000304609286           126.684043         0.0179559216          -144.107972       0.000213902763           132.783954         0.0802722451           17.1904568
        0.0838624999           9.39861254       0.000213902763           132.783954          0.016600379          -136.575072       0.000364145406           102.961986
      0.000203712497           144.557766         0.0802722451           17.1904568       0.000364145406           102.961986         0.0121601533          -110.137792

!
           330000000         0.0153339615          -177.393739       0.000320698792           112.347452         0.0909562006          -2.17290915       0.000211204815           129.844284
      0.000320698792           112.347452 0.006670866550000001          -152.184095       0.000224669424           118.725533  0.09084393339999998    5.866987780000001
        0.0909562006          -2.17290915       0.000224669424           118.725533        0.00857052073          -139.596864       0.000382613274    89.25181430000001
      0.000211204815           129.844284  0.09084393339999998    5.866987780000001       0.000382613274    89.25181430000001        0.00779631608   -57.42076300000001

!
           340000000         0.0146027158           153.252492       0.000338381733             98.00909  0.09166473249999999          -13.8209626       0.000219982441           115.210308
      0.000338381733             98.00909        0.00179978178           137.480246       0.000237359879           104.653396  0.09543748520000001   -5.648892630000001
 0.09166473249999999          -13.8209626       0.000237359879           104.653396 0.005638979409999999          -175.200062       0.000402473037           75.6972512
      0.000219982441           115.210308  0.09543748520000001   -5.648892630000001       0.000402473037           75.6972512        0.00919117516          -31.0458001

!
           350000000         0.0215515763           130.242796 0.0003579021590000001    83.53466280000001  0.08598497049999999          -25.1869298        0.00023019472           100.439981
0.0003579021590000001    83.53466280000001 0.006257768129999999           101.286506       0.000252142737            90.340834  0.09386093260000002          -17.0450498
 0.08598497049999999          -25.1869298       0.000252142737            90.340834         0.0113468859           137.917221       0.000424391296           62.1768649
       0.00023019472           100.439981  0.09386093260000002          -17.0450498       0.000424391296           62.1768649        0.00678493798          -18.0550197

!
           360000000          0.035016102    115.6939090000001       0.000379045854    68.79201430000001         0.0742841784   -35.73168650000001       0.000241532832           85.3420079
      0.000379045854    68.79201430000001         0.0154910481           104.964277       0.000268673857           75.5939442          0.086228609          -27.9894087
        0.0742841784   -35.73168650000001       0.000268673857           75.5939442         0.0245876162           119.345679 0.0004486085730000001           48.5454368
      0.000241532832           85.3420079          0.086228609          -27.9894087 0.0004486085730000001           48.5454368        0.00506625542           72.0986137

!
           370000000           0.05413963           103.632188       0.000401055351            53.688852          0.057420602          -44.1625036       0.000253225641           69.8034598
      0.000401055351            53.688852         0.0304592015           102.160916       0.000286071608    60.30360330000001          0.073011518   -37.85775240000001
         0.057420602          -44.1625036       0.000286071608    60.30360330000001          0.043640547           106.377999 0.0004747593340000001           34.6725845
      0.000253225641           69.8034598          0.073011518   -37.85775240000001 0.0004747593340000001           34.6725845         0.0186049959            100.80979

!
           380000000  0.07796804490000001    91.77459260000001        0.00042267394           38.2031521         0.0372058086          -46.0589774       0.000264155385           53.8236861
       0.00042267394           38.2031521  0.05085086419999999    94.86584870000002       0.000303021784           44.4738104         0.0552088669          -45.0318256
        0.0372058086          -46.0589774       0.000303021784           44.4738104         0.0674694007    94.04089990000001       0.000501818508           20.4818799
      0.000264155385           53.8236861         0.0552088669          -45.0318256       0.000501818508           20.4818799         0.0387719398           96.4935685

!
           390000000          0.105143163    79.63523429999999       0.000442366129           22.3978956         0.0199119591          -19.7808897       0.000273105661           37.5218584
      0.000442366129           22.3978956         0.0756554555    85.21316730000001       0.000318030672    28.22354770000001         0.0350267364          -43.8063818
        0.0199119591          -19.7808897       0.000318030672    28.22354770000001  0.09469902999999999           81.5656891       0.000528258956           5.97822011