! Tyco Electronics Strada Whisper System
! FEXT_G89_G1112
!! 
!! SYSTEM DESCRIPTION: Daughtercard-Footprint-Connector-Footprint-Daughtercard
!! PCB DESCRIPTION: DC: 140mil, Megtron7N, upper layer route, 15mil stub, 6-6-6mil 10" traces
!! CONNECTOR DESCRIPTION: Next-Gen STRADA Whisper Direct-Plug Orthogonal Connector
!! MODEL DESCRIPTION: Tyco Electronics System 4-port S-parameter 
!! MODEL STATUS: Developmental
!! MODEL GEOMETRY: Channel Model
!! MODEL FREQUENCY RANGE: DC to 60 GHz in 10 MHz frequency steps
!! MODEL EDGE RATE LIMITATION: 8.3 ps (Using conservative 0.5/Fmax rule of thumb)
!! 
!! TIME-DOMAIN TRANSFORM CAUTIONS: 
!! 1.) Do not simulate transient edge rates faster than the number listed above.  Edge rates faster than this number 
!!     contain significant spectral content at frequencies above the model's highest frequency. 
!! 2.) Even when simulating edge rates that are slower than the number listed above, be aware that the best time 
!!     resolution possible with a direct iFFT is (1 / 2Fmax).  As a result, time resolution is typically not adequate 
!!     for most time-domain simulations unless tricks such as windowing are used to minimize leakage and aliasing. 
!! 3.) Because the model has a uniform frequency step, a direct iFFT will result in an impulse that that has a time 
!!     length given by either (1 / Fstep) or (1 / 2Fstep), depending on the transform being used.  Care has been taken 
!!     in selecting the frequency step to ensure a settled impulse response for the model.  Therefore, convolution with 
!!     the model's impulse response should present no issues.  However, if directly concatenating s-parameter models 
!!     in the frequency domain a user must either interpolate necessary interim frequencies or complete impulse response 
!!     zero-padding.  Impulse response zero-padding is more difficult, but more accurate. 
!! 
!! PORT DEFINITIONS: 
!! Port   1  ----->  TX Side	G8     G11     RX Side  <-----  Port   3
!! Port   2  ----->  TX Side	G9     G12     RX Side  <-----  Port   4
!! 
!!!!!!!!!!!!!!!!!!!!!!!!!!!!!!!!!!!!!!!!!!!!!!!!!!!!!!!!!!!!!!!!!!!!!!!!!!!!!!!!!!!!!!!!!!!!!!!!!!!!!!!!!!!!!!!!!!!!!!!!
! Touchstone data
! Created: 10-Dec-2018 by IdEM R2012 (8.0.5)
# Hz S MA R 50

!
                   0         0.0455705288                    0      5.08019146e-006                  180        0.00193010646                    0      2.26101417e-006                  180
     5.08019146e-006                  180           0.04331862                    0      1.70879114e-005                  180         0.0014911145                    0
       0.00193010646                    0      1.70879114e-005                  180         0.0456832456                    0      5.30377618e-006                  180
     2.26101417e-006                  180         0.0014911145                    0      5.30377618e-006                  180         0.0435122387                    0

!
            10000000         0.0538762306           16.5111362 5.925192720000001e-006          -177.775617         0.0288677727    72.29432850000001      3.77792582e-006           -145.02155
5.925192720000001e-006          -177.775617         0.0522086169           18.4715491      1.78099365e-005           155.196498         0.0284517238           73.4156126
        0.0288677727    72.29432850000001      1.78099365e-005           155.196498          0.054136933            16.748637      1.52346455e-005           95.9716387
     3.77792582e-006           -145.02155         0.0284517238           73.4156126      1.52346455e-005           95.9716387         0.0525340477           18.6347659

!
            20000000         0.0699546212           20.7560436      8.01504557e-006           173.306699         0.0557209409           60.4184616      6.37491192e-006          -147.373327
     8.01504557e-006           173.306699  0.06931629189999998           23.2364054      2.00438862e-005           131.406395          0.055024603    61.43868689999999
        0.0557209409           60.4184616      2.00438862e-005           131.406395  0.07050954380000002           21.0398567      2.91344704e-005    71.76230320000001
     6.37491192e-006          -147.373327          0.055024603    61.43868689999999      2.91344704e-005    71.76230320000001         0.0699069091           23.4192743

!
            30000000         0.0864208932           16.9309561       1.0782162e-005           156.681625         0.0791148481           47.4289802 8.996861049999999e-006          -159.427718
      1.0782162e-005           156.681625  0.08688198850000001           19.5807519      2.36974349e-005           109.062105         0.0783123696    48.62498930000001
        0.0791148481           47.4289802      2.36974349e-005           109.062105          0.087291249           17.2078258       4.3528714e-005           53.9367199
8.996861049999999e-006          -159.427718         0.0783123696    48.62498930000001       4.3528714e-005           53.9367199         0.0877649997           19.7465191

!
            40000000           0.09946157    9.153988549999999      1.40056641e-005           136.587598  0.09779588889999999           34.2795519      1.14146099e-005          -174.519895
     1.40056641e-005           136.587598          0.101164278           12.0032176      2.86881149e-005           87.9688556         0.0971347159    35.73049579999999
 0.09779588889999999           34.2795519      2.86881149e-005           87.9688556          0.100642447    9.426390939999999      5.83327793e-005           37.7841484
     1.14146099e-005          -174.519895         0.0971347159    35.73049579999999      5.83327793e-005           37.7841484          0.102344645           12.1517224

!
            50000000          0.107177685         -0.646790217      1.76187112e-005           115.063828          0.110871587           21.1373194      1.35065212e-005           169.063171
     1.76187112e-005           115.063828          0.110354472            2.4966193       3.4966079e-005            67.701962           0.11065133           22.8884258
         0.110871587           21.1373194       3.4966079e-005            67.701962          0.108661938         -0.365147612 7.366734240000001e-005           22.2448207
     1.35065212e-005           169.063171           0.11065133           22.8884258 7.366734240000001e-005           22.2448207          0.111834931           2.63217684

!
            60000000          0.108566808          -11.6328077 2.159033460000001e-005           92.9514531           0.11774578           8.01929502       1.5154396e-005           151.917651
2.159033460000001e-005           92.9514531          0.113506546   -8.076358130000001      4.25054587e-005    47.85159139999999          0.118304513           10.1096522
          0.11774578           8.01929502      4.25054587e-005    47.85159139999999           0.11034941          -11.3232503 8.969865150000002e-005           6.90540699
      1.5154396e-005           151.917651          0.118304513           10.1096522 8.969865150000002e-005           6.90540699           0.11529167   -7.950280500000001

!
            70000000          0.103111584           -23.470566       2.5874018e-005           70.5414457           0.11805217   -5.100194460000001      1.62149025e-005           134.344878
      2.5874018e-005           70.5414457          0.110130628           -19.338565      5.12732832e-005           28.0900372           0.11975182   -2.630916249999999
          0.11805217   -5.100194460000001      5.12732832e-005           28.0900372           0.10518962          -23.1052065       0.000106578715   -8.470274330000002
     1.62149025e-005           134.344878           0.11975182   -2.630916249999999       0.000106578715   -8.470274330000002           0.11222723          -19.2198763

!
            80000000         0.0906160528          -36.1140894      3.03734325e-005           47.8797764          0.111629508          -18.2407182       1.6515848e-005           116.652845
     3.03734325e-005           47.8797764          0.100024677   -31.14074840000001 6.118132920000001e-005    8.173766440000001          0.114830795          -15.3527525
         0.111629508          -18.2407182 6.118132920000001e-005    8.173766440000001  0.09298637110000001   -35.64164050000001       0.000124376458          -24.0522025
      1.6515848e-005           116.652845          0.114830795          -15.3527525       0.000124376458          -24.0522025          0.102440624          -31.0285203

!
            90000000  0.07118847730000001          -49.8264404      3.49132322e-005           24.9234388  0.09856426270000002          -31.3653856      1.58808269e-005    99.40152120000001
     3.49132322e-005           24.9234388         0.0832331236          -43.4589487 7.202696950000001e-005          -12.0606764          0.103581743          -28.0253939
 0.09856426270000002          -31.3653856 7.202696950000001e-005          -12.0606764         0.0738415266          -49.1244819       0.000142991468   -39.96659869999999
     1.58808269e-005    99.40152120000001          0.103581743          -28.0253939       0.000142991468   -39.96659869999999          0.085975065   -43.35259150000001

!
           100000000         0.0453584352          -65.8685895      3.92220374e-005           1.63066934  0.07929732339999999          -44.2831119      1.42027051e-005            83.840249
     3.92220374e-005           1.63066934         0.0600965168          -56.4011453      8.34385985e-005   -32.69269990000001         0.0863311619   -40.48610529999999
 0.07929732339999999          -44.2831119      8.34385985e-005   -32.69269990000001         0.0482553411          -64.4919508       0.000162068589          -56.2870985
     1.42027051e-005            83.840249         0.0863311619   -40.48610529999999       0.000162068589          -56.2870985         0.0631669377          -56.2945872

!
           110000000         0.0148717473   -97.54314450000001      4.29445308e-005          -21.9854761         0.0547624952          -56.3076499      1.16257068e-005           73.0395491
     4.29445308e-005          -21.9854761          0.031358894          -70.6847365       9.4855204e-005          -53.7094285  0.06381642899999999   -52.19092310000001
        0.0547624952          -56.3076499       9.4855204e-005          -53.7094285         0.0176093122   -90.33095109999999        0.00018095796          -73.0154409
     1.16257068e-005           73.0395491  0.06381642899999999   -52.19092310000001        0.00018095796          -73.0154409         0.0347526437          -70.4818422

!
           120000000         0.0234349471           112.632288 4.569729779999999e-005          -45.8347407         0.0265820846          -63.7143492 9.059612630000001e-006           74.2819228
4.569729779999999e-005          -45.8347407        0.00247144371           140.975555       0.000105575463           -75.003547         0.0373569625          -60.8795289
        0.0265820846          -63.7143492       0.000105575463           -75.003547         0.0197377411           113.212558       0.000198779266   -90.06720210000002
9.059612630000001e-006           74.2819228         0.0373569625          -60.8795289       0.000198779266   -90.06720210000002        0.00259244704          -124.928641

!
           130000000         0.0606431597    88.65327170000002       4.7162126e-005          -69.7614533        0.00748994237           37.4162922 9.049202160000001e-006    90.80172380000001
      4.7162126e-005          -69.7614533  0.03774912910000001           88.4159631       0.000114890088          -96.3880901          0.010564361          -39.5600651
       0.00748994237           37.4162922       0.000114890088          -96.3880901         0.0567020863           88.1253731       0.000214619199          -107.276616
9.049202160000001e-006    90.80172380000001          0.010564361          -39.5600651       0.000214619199          -107.276616          0.033779123           89.1774333

!
           140000000          0.098216923           72.5699049       4.7178707e-005          -93.5900635         0.0355376108           65.9974706      1.30222431e-005           97.8442909
      4.7178707e-005          -93.5900635         0.0743010152    73.83923470000001       0.000122258685          -117.632451         0.0240441183           61.1203202
        0.0355376108           65.9974706       0.000122258685          -117.632451  0.09405742059999998    72.10565459999999        0.00022780788          -124.427047
     1.30222431e-005           97.8442909         0.0240441183           61.1203202        0.00022780788          -124.427047         0.0700693278    74.24310850000001

!
           150000000          0.133627079           58.0208591      4.57852944e-005          -117.193436         0.0636809525           56.6661218      1.89946433e-005           89.6672188
     4.57852944e-005          -117.193436          0.109507769           60.1496234       0.000127446393          -138.511891  0.05205671310000001    57.89751270000002
        0.0636809525           56.6661218       0.000127446393          -138.511891          0.129258535           57.6142627        0.00023814096          -141.299937
     1.89946433e-005           89.6672188  0.05205671310000001    57.89751270000002        0.00023814096          -141.299937          0.105052398           60.4750042

!
           160000000          0.165069442           44.1894697      4.31839198e-005          -140.565837         0.0883260422           44.9641691      2.54256816e-005    74.78495150000001
     4.31839198e-005          -140.565837          0.141552736           46.8374551       0.000130548187          -158.853666         0.0776614725           47.6018555
        0.0883260422           44.9641691       0.000130548187          -158.853666          0.160500469           43.8173209       0.000245927514          -157.723791
     2.54256816e-005    74.78495150000001         0.0776614725           47.6018555       0.000245927514          -157.723791          0.136903914           47.1367165

!
           170000000          0.191317189            30.859762      3.96569081e-005          -163.889229          0.108329051    32.91017419999999      3.16179394e-005    57.41982290000001
     3.96569081e-005          -163.889229          0.169070328           33.8365356       0.000131898654          -178.564343  0.09925689270000002           36.0867388
         0.108329051    32.91017419999999       0.000131898654          -178.564343          0.186549213           30.5057627        0.00025185414          -173.605185
     3.16179394e-005    57.41982290000001  0.09925689270000002           36.0867388        0.00025185414          -173.605185          0.164250026    34.12954619999999

!
           180000000          0.211670044           17.9292679      3.54895964e-005           172.396891          0.123110684           20.9412197      3.72640311e-005    39.27330250000001
     3.54895964e-005           172.396891          0.191185387           21.1210554       0.000131927962           162.366568          0.116039569           24.3424943
         0.123110684           20.9412197       0.000131927962           162.366568          0.206695155           17.5821085       0.000256760409           171.065264
     3.72640311e-005    39.27330250000001          0.116039569           24.3424943       0.000256760409           171.065264          0.186205579           21.4192781

!
           190000000          0.225821871    5.314041000000001      3.09467807e-005           147.481264          0.132450675    9.165640990000002      4.22731724e-005           21.0730584
     3.09467807e-005           147.481264          0.207436952    8.650826080000002        0.00013103164           143.881178          0.127626306           12.6370978
         0.132450675    9.165640990000002        0.00013103164           143.881178          0.220623222            4.9653372       0.000261435814           156.227137
     4.22731724e-005           21.0730584          0.127626306           12.6370978       0.000261435814           156.227137          0.202299632    8.963443829999997

!
           200000000          0.233711385   -7.069276819999999      2.63377365e-005           119.956263          0.136324434   -2.413232670000001      4.66845037e-005           3.13024876
     2.63377365e-005           119.956263          0.217651301   -3.633357240000001       0.000129487401           125.876801          0.133885699           1.03129059
         0.136324434   -2.413232670000001       0.000129487401           125.876801           0.22826512          -7.42622152       0.000266493539           141.774577
     4.66845037e-005           3.13024876          0.133885699           1.03129059       0.000266493539           141.774577          0.212350082           -3.2969938

!
           210000000          0.235409346          -19.3005824      2.22220157e-005           87.5322132          0.134792899          -13.8181518      5.06097764e-005          -14.4476809
     2.22220157e-005           87.5322132          0.221824837          -15.8023089       0.000127418056           108.231832          0.134814486          -10.4877459
         0.134792899          -13.8181518       0.000127418056           108.231832          0.229687447           -19.671466       0.000272318965           127.582164
     5.06097764e-005          -14.4476809          0.134814486          -10.4877459       0.000272318965           127.582164          0.216347634          -15.4311135

!
           220000000          0.231065751           -31.446683      1.97849143e-005    47.81545640000001          0.127963657          -25.0469253      5.41932032e-005          -31.6680815
     1.97849143e-005    47.81545640000001          0.220051021          -27.9279536       0.000124786361    90.83166550000001          0.130471317          -21.9485948
         0.127963657          -25.0469253       0.000124786361    90.83166550000001          0.225039472          -31.8365045       0.000279067124           113.527696
     5.41932032e-005          -31.6680815          0.130471317          -21.9485948       0.000279067124           113.527696          0.214383432          -27.5075121

!
           230000000          0.220920717          -43.5482813      2.07981731e-005           3.17389515          0.116025158   -36.01324560000001      5.75792172e-005          -48.6141564
     2.07981731e-005           3.17389515          0.212503046   -40.07193910000001       0.000121411914           73.5957375          0.120974027           -33.353768
         0.116025158   -36.01324560000001       0.000121411914           73.5957375          0.214564426           -43.961217       0.000286688189           99.5104158
     5.75792172e-005          -48.6141564          0.120974027           -33.353768       0.000286688189           99.5104158          0.206632225          -39.5823164

!
           240000000          0.205371412          -55.6038108      2.60430545e-005   -37.92108700000001  0.09934808539999999           -46.437434      6.08785959e-005   -65.42312490000001
     2.60430545e-005   -37.92108700000001          0.199470433          -52.2735281       0.000117010695           56.5082342          0.106555189          -44.6272653
 0.09934808539999999           -46.437434       0.000117010695           56.5082342          0.198666554          -56.0423569 0.0002949754350000001           85.4642207
     6.08785959e-005   -65.42312490000001          0.106555189          -44.6272653 0.0002949754350000001           85.4642207           0.19338934   -51.68573919999999

!
           250000000          0.185075152   -67.54966500000001      3.46516998e-005          -72.0228889         0.0786531421          -55.5638099      6.41293965e-005          -82.2610691
     3.46516998e-005          -72.0228889          0.181437047          -64.5367004        0.00011126542           39.6550598  0.08766285259999999          -55.5077683
        0.0786531421          -55.5638099        0.00011126542           39.6550598          0.178013818          -68.0121563       0.000303640492           71.3645399
     6.41293965e-005          -82.2610691  0.08766285259999999          -55.5077683       0.000303640492           71.3645399          0.175148871          -63.8064947

!
           260000000          0.161051215   -79.23601840000001      4.55099217e-005          -101.115992         0.0553199969   -61.17123650000001      6.72622735e-005           -99.284252
     4.55099217e-005          -101.115992          0.159174046   -76.81677580000002       0.000103933922           23.2697945         0.0650939965          -65.2234599
        0.0553199969   -61.17123650000001       0.000103933922           23.2697945          0.153638667   -79.71018410000001       0.000312416356           57.2263088
     6.72622735e-005           -99.284252         0.0650939965          -65.2234599       0.000312416356           57.2263088          0.152696584          -75.8728449

!
           270000000          0.134728895          -90.3956386 5.778748030000001e-005          -127.340478         0.0325676119          -54.8553406      7.00920217e-005          -116.592835
5.778748030000001e-005          -127.340478          0.133805584          -89.0064498      9.49926436e-005    7.793399609999998         0.0402310565          -70.9626001
        0.0325676119          -54.8553406      9.49926436e-005    7.793399609999998          0.126985092   -90.84190440000002       0.000321167677           43.0909747
     7.00920217e-005          -116.592835         0.0402310565          -70.9626001       0.000321167677           43.0909747          0.127175688          -87.7261965

!
           280000000           0.10789605          -100.599117      7.08065068e-005          -151.907092         0.0225975628          -12.1289531 7.235341260000001e-005          -134.197323
     7.08065068e-005          -151.907092          0.106800272           -100.91736      8.48042101e-005   -6.045627859999999         0.0168505821          -53.8050168
        0.0225975628          -12.1289531      8.48042101e-005   -6.045627859999999         0.0998589555          -100.906183       0.000329964517           29.0043676
7.235341260000001e-005          -134.197323         0.0168505821          -53.8050168       0.000329964517           29.0043676          0.100080016   -99.07197909999999

!
           290000000         0.0825416991          -109.191991      8.39628246e-005          -175.411499         0.0370999605           18.4083025      7.37738517e-005          -152.016004
     8.39628246e-005          -175.411499  0.07986305389999999          -112.240679      7.43117008e-005          -17.1495914         0.0200119139           25.8198235
        0.0370999605           18.4083025      7.43117008e-005          -17.1495914         0.0742830377          -109.056235       0.000339077898           14.9931255
     7.37738517e-005          -152.016004         0.0200119139           25.8198235       0.000339077898           14.9931255  0.07315420809999999          -109.353635

!
           300000000         0.0606293707          -115.268771 9.674360219999998e-005           161.860644         0.0571823208             19.19523 7.414725150000001e-005          -169.902372
9.674360219999998e-005           161.860644          0.054749812          -122.431144      6.52767316e-005          -24.1665228         0.0422966581           34.5465099
        0.0571823208             19.19523      6.52767316e-005          -24.1665228  0.05231192489999999          -113.883415       0.000348895824           1.04991531
7.414725150000001e-005          -169.902372         0.0422966581           34.5465099       0.000348895824           1.04991531         0.0482402452          -117.343399

!
           310000000         0.0437966558          -118.046388       0.000108761309           139.757714         0.0746258804           11.7099932      7.33714311e-005           172.317646
      0.000108761309           139.757714          0.033074214          -130.306844      6.03750413e-005          -26.5216338  0.06306671310000001           27.5462219
        0.0746258804           11.7099932      6.03750413e-005          -26.5216338         0.0358125962          -113.545599       0.000359806262          -12.8671748
     7.33714311e-005           172.317646  0.06306671310000001           27.5462219       0.000359806262          -12.8671748         0.0272230827          -119.472574

!
           320000000         0.0327828253          -118.624323       0.000119751844           118.171391         0.0871725176           1.44909752      7.14391332e-005           154.822896
      0.000119751844           118.171391         0.0162054464            -132.2876 6.228495309999999e-005          -26.5962302         0.0796229571           17.3812811
        0.0871725176           1.44909752 6.228495309999999e-005          -26.5962302         0.0257888767          -108.433905       0.000372101858   -26.82450980000001
     7.14391332e-005           154.822896         0.0796229571           17.3812811       0.000372101858   -26.82450980000001         0.0127452285          -101.717673

!
           330000000          0.026662187          -122.539427       0.000129527591    96.99803740000002         0.0938195611          -10.0091034      6.84051852e-005           137.804198
      0.000129527591    96.99803740000002        0.00556359778           -110.56089       7.1646441e-005   -29.00187710000001         0.0908889187           6.21864372
        0.0938195611          -10.0091034       7.1646441e-005   -29.00187710000001         0.0207806074          -106.497607        0.00038592539          -40.9000305
     6.84051852e-005           137.804198         0.0908889187           6.21864372        0.00038592539          -40.9000305 0.009914382250000001          -51.5325132

!
           340000000         0.0237476394          -137.803664       0.000137906448           76.1319202         0.0941086928          -22.0844381      6.43664065e-005            121.50663
      0.000137906448           76.1319202        0.00344528901          -34.1749768      8.68493725e-005   -36.06185229999999  0.09628768829999999          -5.26874535
        0.0941086928          -22.0844381      8.68493725e-005   -36.06185229999999         0.0176008259          -119.508675       0.000401236824          -55.1728227
     6.43664065e-005            121.50663  0.09628768829999999          -5.26874535       0.000401236824          -55.1728227         0.0121438684   -32.24904969999999

!
           350000000         0.0249109098          -167.491575       0.000144648266           55.4766276  0.08795725660000001          -34.5197929      5.94869131e-005           106.305044
      0.000144648266           55.4766276        0.00321394037            27.996086       0.000105838504          -47.2741447         0.0955767881          -16.7614431
 0.08795725660000001          -34.5197929       0.000105838504          -47.2741447         0.0167601304          -156.214156       0.000417775643           -69.714848
     5.94869131e-005           106.305044         0.0955767881          -16.7614431       0.000417775643           -69.714848         0.0102808013          -28.0901473

!
           360000000         0.0335677528           159.166539       0.000149427271           34.9650012  0.07562479879999999          -47.1558897      5.40915456e-005           92.7958896
      0.000149427271           34.9650012 0.008608710719999999           94.4872494       0.000126995093          -61.4503201  0.08880494580000001          -27.9809534
 0.07562479879999999          -47.1558897       0.000126995093          -61.4503201          0.024332742           159.350901       0.000435013826          -84.5817043
     5.40915456e-005           92.7958896  0.08880494580000001          -27.9809534       0.000435013826          -84.5817043        0.00399034261           10.5503266

!
           370000000         0.0502994449           132.934295       0.000151860563           14.5800356          0.057739357          -59.7951933      4.88315658e-005    81.81797330000001
      0.000151860563           14.5800356         0.0221489746           102.150646       0.000149026371          -77.6428025         0.0763391268          -38.4639812
         0.057739357          -59.7951933       0.000149026371          -77.6428025         0.0412066546           129.989111        0.00045212683   -99.80037299999999
     4.88315658e-005    81.81797330000001         0.0763391268          -38.4639812        0.00045212683   -99.80037299999999         0.0128885332    99.29491659999999

!
           380000000         0.0731460513           112.727723       0.000151597213   -5.630312850000001         0.0353344207          -71.8896087      4.48469809e-005           74.0998968
      0.000151597213   -5.630312850000001         0.0415522723    96.95674529999999       0.000170745373   -95.19434320000002         0.0589765258          -47.0746968
        0.0353344207          -71.8896087       0.000170745373   -95.19434320000002  0.06429683629999999           109.752364       0.000468033863          -115.355509
     4.48469809e-005           74.0998968         0.0589765258          -47.0746968       0.000468033863          -115.355509         0.0321153456    98.49461330000001

!
           390000000         0.0999916137    95.64793710000001       0.000148445349          -25.5512986         0.0099022096          -77.8348565      4.36089802e-005           69.1241086
      0.000148445349          -25.5512986         0.0656324811           87.9174199       0.000191017862          -113.623625         0.0383242429   -49.94988669999999
        0.0099022096          -77.8348565       0.000191017862          -113.623625          0.091295759           93.1022036 0.0004815540890000001          -131.179735