! Tyco Electronics Strada Whisper System
! FEXT_G1415_G1112
!! 
!! SYSTEM DESCRIPTION: Daughtercard-Footprint-Connector-Footprint-Daughtercard
!! PCB DESCRIPTION: DC: 140mil, Megtron7N, upper layer route, 15mil stub, 6-6-6mil 10" traces
!! CONNECTOR DESCRIPTION: Next-Gen STRADA Whisper Direct-Plug Orthogonal Connector
!! MODEL DESCRIPTION: Tyco Electronics System 4-port S-parameter 
!! MODEL STATUS: Developmental
!! MODEL GEOMETRY: Channel Model
!! MODEL FREQUENCY RANGE: DC to 60 GHz in 10 MHz frequency steps
!! MODEL EDGE RATE LIMITATION: 8.3 ps (Using conservative 0.5/Fmax rule of thumb)
!! 
!! TIME-DOMAIN TRANSFORM CAUTIONS: 
!! 1.) Do not simulate transient edge rates faster than the number listed above.  Edge rates faster than this number 
!!     contain significant spectral content at frequencies above the model's highest frequency. 
!! 2.) Even when simulating edge rates that are slower than the number listed above, be aware that the best time 
!!     resolution possible with a direct iFFT is (1 / 2Fmax).  As a result, time resolution is typically not adequate 
!!     for most time-domain simulations unless tricks such as windowing are used to minimize leakage and aliasing. 
!! 3.) Because the model has a uniform frequency step, a direct iFFT will result in an impulse that that has a time 
!!     length given by either (1 / Fstep) or (1 / 2Fstep), depending on the transform being used.  Care has been taken 
!!     in selecting the frequency step to ensure a settled impulse response for the model.  Therefore, convolution with 
!!     the model's impulse response should present no issues.  However, if directly concatenating s-parameter models 
!!     in the frequency domain a user must either interpolate necessary interim frequencies or complete impulse response 
!!     zero-padding.  Impulse response zero-padding is more difficult, but more accurate. 
!! 
!! PORT DEFINITIONS: 
!! Port   1  ----->  TX Side	G14     G11     RX Side  <-----  Port   3
!! Port   2  ----->  TX Side	G15     G12     RX Side  <-----  Port   4
!! 
!!!!!!!!!!!!!!!!!!!!!!!!!!!!!!!!!!!!!!!!!!!!!!!!!!!!!!!!!!!!!!!!!!!!!!!!!!!!!!!!!!!!!!!!!!!!!!!!!!!!!!!!!!!!!!!!!!!!!!!!
! Touchstone data
! Created: 10-Dec-2018 by IdEM R2012 (8.0.5)
# Hz S MA R 50

!
                   0         0.0455705288                    0      5.06617368e-006                  180        0.00193010646                    0      1.50746263e-005                  180
     5.06617368e-006                  180         0.0470023261                    0      2.27711788e-006                  180        0.00209459383                    0
       0.00193010646                    0      2.27711788e-006                  180         0.0456832456                    0      5.01937211e-006                  180
     1.50746263e-005                  180        0.00209459383                    0      5.01937211e-006                  180         0.0473971682                    0

!
            10000000         0.0538762306           16.5111362       7.9442239e-006           115.635781         0.0288677727    72.29432850000001      1.96737986e-005          -155.183949
      7.9442239e-006           115.635781         0.0553456677           16.2313711      6.37573401e-006          -123.828236         0.0278709448           71.8815585
        0.0288677727    72.29432850000001      6.37573401e-006          -123.828236          0.054136933            16.748637      1.71668136e-005          -121.958471
     1.96737986e-005          -155.183949         0.0278709448           71.8815585      1.71668136e-005          -121.958471          0.055896195           16.3883272

!
            20000000         0.0699546212           20.7560436      1.32928297e-005           84.5352376         0.0557209409           60.4184616      2.91927511e-005          -151.481507
     1.32928297e-005           84.5352376         0.0716015819           20.4996352      1.22611167e-005          -126.670151  0.05371517210000001           60.3010389
        0.0557209409           60.4184616      1.22611167e-005          -126.670151  0.07050954380000002           21.0398567       3.3137094e-005          -128.606583
     2.91927511e-005          -151.481507  0.05371517210000001           60.3010389       3.3137094e-005          -128.606583         0.0724864128           20.6851335

!
            30000000         0.0864208932           16.9309561      1.92235525e-005           63.4142495         0.0791148481           47.4289802      3.97767447e-005          -157.640096
     1.92235525e-005           63.4142495  0.08836221950000001           16.7751473       1.8557046e-005          -136.284107          0.076116636           47.4611792
        0.0791148481           47.4289802       1.8557046e-005          -136.284107          0.087291249           17.2078258      4.92784191e-005          -140.582199
     3.97767447e-005          -157.640096          0.076116636           47.4611792      4.92784191e-005          -140.582199  0.08963398769999999           16.9469565

!
            40000000           0.09946157    9.153988549999999       2.5421586e-005           45.4811961  0.09779588889999999           34.2795519      5.02857949e-005          -167.500506
      2.5421586e-005           45.4811961          0.101755656           9.10006965      2.52954128e-005          -147.981512  0.09381715670000002    34.43798559999999
 0.09779588889999999           34.2795519      2.52954128e-005          -147.981512          0.100642447    9.426390939999999      6.55075375e-005          -153.894879
     5.02857949e-005          -167.500506  0.09381715670000002    34.43798559999999      6.55075375e-005          -153.894879          0.103432716    9.253683479999999

!
            50000000          0.107177685         -0.646790217      3.18111938e-005    28.83467690000001          0.110871587           21.1373194      6.04049972e-005          -178.899616
     3.18111938e-005    28.83467690000001          0.109841744         -0.600605034      3.25616611e-005          -160.820442          0.105919225           21.4312085
         0.110871587           21.1373194      3.25616611e-005          -160.820442          0.108661938         -0.365147612 8.195006970000002e-005          -167.757591
     6.04049972e-005          -178.899616          0.105919225           21.4312085 8.195006970000002e-005          -167.757591          0.111936451         -0.463775983

!
            60000000          0.108566808          -11.6328077      3.83588104e-005           12.7702302           0.11774578           8.01929502      7.00863955e-005           168.999432
     3.83588104e-005           12.7702302          0.111589105          -11.4728785      4.04137994e-005          -174.531936          0.111821074    8.480430309999999
          0.11774578           8.01929502      4.04137994e-005          -174.531936           0.11034941          -11.3232503 9.877183789999999e-005           178.023893
     7.00863955e-005           168.999432          0.111821074    8.480430309999999 9.877183789999999e-005           178.023893          0.114114657          -11.3523702

!
            70000000          0.103111584           -23.470566 4.503503429999999e-005          -3.02901015           0.11805217   -5.100194460000001      7.93722697e-005           156.540396
4.503503429999999e-005          -3.02901015          0.106459048          -23.1528672      4.88506934e-005           170.971784          0.111153283          -4.41046655
          0.11805217   -5.100194460000001      4.88506934e-005           170.971784           0.10518962          -23.1052065       0.000116089118           163.466283
     7.93722697e-005           156.540396          0.111153283          -4.41046655       0.000116089118           163.466283          0.109430237          -23.0505919

!
            80000000         0.0906160528          -36.1140894      5.18031474e-005          -18.7251233          0.111629508          -18.2407182 8.830595230000001e-005           143.861281
     5.18031474e-005          -18.7251233         0.0942409917   -35.53048399999999      5.77825119e-005           155.729258          0.103758903          -17.2074295
         0.111629508          -18.2407182      5.77825119e-005           155.729258  0.09298637110000001   -35.64164050000001       0.000133884328           148.531905
8.830595230000001e-005           143.861281          0.103758903          -17.2074295       0.000133884328           148.531905  0.09767223580000001          -35.4509644

!
            90000000  0.07118847730000001          -49.8264404      5.86143954e-005          -34.4079147  0.09856426270000002          -31.3653856      9.68759088e-005           131.019419
     5.86143954e-005          -34.4079147         0.0750322474   -48.69810130000001      6.70017102e-005            139.78273          0.089744611          -29.7547073
 0.09856426270000002          -31.3653856      6.70017102e-005            139.78273         0.0738415266          -49.1244819       0.000151931812           133.185929
     9.68759088e-005           131.019419          0.089744611          -29.7547073       0.000151931812           133.185929         0.0789340501   -48.64527090000001

!
           100000000         0.0453584352          -65.8685895      6.54051141e-005   -50.12977709999999  0.07929732339999999          -44.2831119       0.000104991823           118.061472
     6.54051141e-005   -50.12977709999999         0.0493251095          -63.2345086      7.61672004e-005           123.209749  0.06960700459999999   -41.53304489999999
 0.07929732339999999          -44.2831119      7.61672004e-005           123.209749         0.0482553411          -64.4919508       0.000169756599           117.432299
      0.000104991823           118.061472  0.06960700459999999   -41.53304489999999       0.000169756599           117.432299         0.0536999343          -63.1692262

!
           110000000         0.0148717473   -97.54314450000001 7.209171530000002e-005          -65.9218594         0.0547624952          -56.3076499        0.00011250919            105.06677
7.209171530000002e-005          -65.9218594         0.0182732322   -84.47590409999999       8.4824372e-005           106.144219         0.0444553411   -50.55292650000001
        0.0547624952          -56.3076499       8.4824372e-005           106.144219         0.0176093122   -90.33095109999999       0.000186662509           101.336903
       0.00011250919            105.06677         0.0444553411   -50.55292650000001       0.000186662509           101.336903         0.0230854067   -83.03958530000001

!
           120000000         0.0234349471           112.632288      7.85620668e-005          -81.7979945         0.0265820846          -63.7143492       0.000119314319           92.1634074
     7.85620668e-005          -81.7979945         0.0179825266           107.347023 9.248002739999999e-005           88.7827455         0.0172561207          -41.2849906
        0.0265820846          -63.7143492 9.248002739999999e-005           88.7827455         0.0197377411           113.212558       0.000201859917           85.0351718
      0.000119314319           92.1634074         0.0172561207          -41.2849906       0.000201859917           85.0351718         0.0131619135           115.383334

!
           130000000         0.0606431597    88.65327170000002 8.467128210000001e-005          -97.7481361        0.00748994237           37.4162922       0.000125446763           79.5082846
8.467128210000001e-005          -97.7481361         0.0550826186           85.0400171      9.87237058e-005    71.36943580000001         0.0202988326           57.3581503
       0.00748994237           37.4162922      9.87237058e-005    71.36943580000001         0.0567020863           88.1253731       0.000214679521           68.7190111
      0.000125446763           79.5082846         0.0202988326           57.3581503       0.000214679521           68.7190111         0.0495758566           86.5890117

!
           140000000          0.098216923           72.5699049      9.02578228e-005          -113.729126         0.0355376108           65.9974706       0.000131189412    67.23306599999999
     9.02578228e-005          -113.729126         0.0922107306           69.7194997       0.000103346467           54.1596528         0.0496471887            62.013459
        0.0355376108           65.9974706       0.000103346467           54.1596528  0.09405742059999998    72.10565459999999       0.000224791682           52.6037403
      0.000131189412    67.23306599999999         0.0496471887            62.013459       0.000224791682           52.6037403         0.0863534958           70.6772345

!
           150000000          0.133627079           58.0208591      9.51848363e-005          -129.666002         0.0636809525           56.6661218       0.000137051826           55.3813109
     9.51848363e-005          -129.666002          0.127023966           55.5312147       0.000106393637    37.37533500000001  0.07813732130000001           52.7760455
        0.0636809525           56.6661218       0.000106393637    37.37533500000001          0.129258535           57.6142627        0.00023232291    36.88566809999999
      0.000137051826           55.3813109  0.07813732130000001           52.7760455        0.00023232291    36.88566809999999          0.120892169    56.30794850000001

!
           160000000          0.165069442           44.1894697      9.93857326e-005          -145.469747         0.0883260422           44.9641691       0.000143639975            43.876134
     9.93857326e-005          -145.469747          0.157777887           41.9027592       0.000108125205           21.1707344          0.103118065            41.324453
        0.0883260422           44.9641691       0.000108125205           21.1707344          0.160500469           43.8173209        0.00023781663           21.7062667
      0.000143639975            43.876134          0.103118065            41.324453        0.00023781663           21.7062667          0.151423278           42.6082565

!
           170000000          0.191317189            30.859762       0.000102883334          -161.062718          0.108329051    32.91017419999999       0.000151490269           32.5413219
      0.000102883334          -161.062718          0.183294641    28.69692229999999       0.000108916586            5.6210562          0.123424188           29.3534922
         0.108329051    32.91017419999999       0.000108916586            5.6210562          0.186549213           30.5057627       0.000242081453           7.13390475
      0.000151490269           32.5413219          0.123424188           29.3534922       0.000242081453           7.13390475          0.176751651           29.3788127

!
           180000000          0.211670044           17.9292679       0.000105771932          -176.397432          0.123110684           20.9412197       0.000160961144           21.1604536
      0.000105771932          -176.397432           0.20291697           15.8398415        0.00010915871           -9.2670236          0.138480879           17.3155563
         0.123110684           20.9412197        0.00010915871           -9.2670236          0.206695155           17.5821085        0.00024601871   -6.836673250000001
      0.000160961144           21.1604536          0.138480879           17.3155563        0.00024601871   -6.836673250000001          0.196203243           16.5267429

!
           190000000          0.225821871    5.314041000000001       0.000108177125           168.538807          0.132450675    9.165640990000002       0.000172213961           9.53510054
      0.000108177125           168.538807          0.216372181    3.256601679999999        0.00010919696          -23.5336728          0.148075137    5.329851860000001
         0.132450675    9.165640990000002        0.00010919696          -23.5336728          0.220623222            4.9653372       0.000250495222          -20.2743506
      0.000172213961           9.53510054          0.148075137    5.329851860000001       0.000250495222          -20.2743506          0.209490569           3.97110002

!
           200000000          0.233711385   -7.069276819999999        0.00011021586           153.731814          0.136324434   -2.413232670000001       0.000185248643          -2.48495482
       0.00011021586           153.731814          0.223620892   -9.136870029999999       0.000109314403          -37.2449275           0.15218479          -6.61014907
         0.136324434   -2.413232670000001       0.000109314403          -37.2449275           0.22826512          -7.42622152       0.000256273264          -33.2985355
      0.000185248643          -2.48495482           0.15218479          -6.61014907       0.000256273264          -33.2985355          0.216563099   -8.372535810000001

!
           210000000          0.235409346          -19.3005824       0.000111971259           139.155269          0.134792899          -13.8181518       0.000199941846          -14.9992949
      0.000111971259           139.155269          0.224743988          -21.4277412       0.000109743873          -50.4800345          0.150866559          -18.5621605
         0.134792899          -13.8181518       0.000109743873          -50.4800345          0.229687447           -19.671466       0.000263974437          -46.0661217
      0.000199941846          -14.9992949          0.150866559          -18.5621605       0.000263974437          -46.0661217          0.217495298          -20.5879042

!
           220000000          0.231065751           -31.446683        0.00011348734           124.786943          0.127963657          -25.0469253       0.000216056987   -28.06702140000001
       0.00011348734           124.786943          0.219890039          -33.6962316       0.000110688724          -63.3294326          0.144214797   -30.59757300000001
         0.127963657          -25.0469253       0.000110688724          -63.3294326          0.225039472          -31.8365045       0.000274048034   -58.75744280000001
      0.000216056987   -28.06702140000001          0.144214797   -30.59757300000001       0.000274048034   -58.75744280000001          0.212434784           -32.747941

!
           230000000          0.220920717          -43.5482813       0.000114784003            110.62222          0.116025158   -36.01324560000001       0.000233224197          -41.7157738
      0.000114784003            110.62222          0.209286129          -46.0038563        0.00011233488          -75.9008023          0.132388012          -42.7763868
         0.116025158   -36.01324560000001        0.00011233488          -75.9008023          0.214564426           -43.961217       0.000286726764           -71.558494
      0.000233224197          -41.7157738          0.132388012          -42.7763868       0.000286726764           -71.558494          0.201613815          -44.9015363

!
           240000000          0.205371412          -55.6038108       0.000115890439    96.68053569999999  0.09934808539999999           -46.437434       0.000250909116          -55.9436963
      0.000115890439    96.68053569999999          0.193304296          -58.3801264       0.000114842454   -88.32572560000001          0.115689699   -55.12493050000001
 0.09934808539999999           -46.437434       0.000114842454   -88.32572560000001          0.198666554          -56.0423569       0.000301972911          -84.6382215
      0.000250909116          -55.9436963          0.115689699   -55.12493050000001       0.000301972911          -84.6382215          0.185416416           -57.056847

!
           250000000          0.185075152   -67.54966500000001        0.00011688954           82.9991612         0.0786531421          -55.5638099       0.000268402399   -70.71516560000001
       0.00011688954           82.9991612          0.172563884          -70.8078259       0.000118315854          -100.756178  0.09467844590000001          -67.6077422
        0.0786531421          -55.5638099       0.000118315854          -100.756178          0.178013818          -68.0121563 0.0003194399520000001          -98.1235147
      0.000268402399   -70.71516560000001  0.09467844590000001          -67.6077422 0.0003194399520000001          -98.1235147          0.164481489   -69.15954960000001

!
           260000000          0.161051215   -79.23601840000001       0.000117953867    69.60989630000002         0.0553199969   -61.17123650000001       0.000284864824          -85.9552853
      0.000117953867    69.60989630000002           0.14803243          -83.2071852       0.000122768802          -113.343695         0.0702671517          -80.0681216
        0.0553199969   -61.17123650000001       0.000122768802          -113.343695          0.153638667   -79.71018410000001       0.000338489449          -112.078652
      0.000284864824          -85.9552853         0.0702671517          -80.0681216       0.000338489449          -112.078652          0.139804992   -81.06193140000001

!
           270000000          0.134728895          -90.3956386       0.000119342418           56.5025838         0.0325676119          -54.8553406       0.000299446317          -101.549903
      0.000119342418           56.5025838           0.12107195   -95.41756169999999       0.000128114513          -126.207671         0.0437627143          -91.9851329
        0.0325676119          -54.8553406       0.000128114513          -126.207671          0.126985092   -90.84190440000002 0.0003582956650000001          -126.497583
      0.000299446317          -101.549903         0.0437627143          -91.9851329 0.0003582956650000001          -126.497583           0.11278994          -92.4695523

!
           280000000           0.10789605          -100.599117       0.000121336304    43.59507850000001         0.0225975628          -12.1289531       0.000311455921           -117.35638
      0.000121336304    43.59507850000001          0.093382814          -107.167688       0.000134201647          -139.413192         0.0168494948   -99.98730310000001
        0.0225975628          -12.1289531       0.000134201647          -139.413192         0.0998589555          -100.906183       0.000378030175          -141.314457
      0.000311455921           -117.35638         0.0168494948   -99.98730310000001       0.000378030175          -141.314457         0.0852027185          -102.821146

!
           290000000         0.0825416991          -109.191991       0.000124133126           30.7373878         0.0370999605           18.4083025       0.000320514074          -133.225144
      0.000124133126           30.7373878  0.06683754240000001          -118.003581       0.000140880399          -152.975818        0.00942637283           43.2652873
        0.0370999605           18.4083025       0.000140880399          -152.975818         0.0742830377          -109.056235        0.00039706159          -156.430553
      0.000320514074          -133.225144        0.00942637283           43.2652873        0.00039706159          -156.430553         0.0590479899          -110.950722

!
           300000000         0.0606293707          -115.268771        0.00012776462    17.75786460000001         0.0571823208             19.19523       0.000326609338          -149.025576
       0.00012776462    17.75786460000001         0.0432557052          -127.078505       0.000148052485          -166.889974         0.0320225229           41.0834441
        0.0571823208             19.19523       0.000148052485          -166.889974  0.05231192489999999          -113.883415       0.000415077266          -171.748049
      0.000326609338          -149.025576         0.0320225229           41.0834441       0.000415077266          -171.748049         0.0364888587          -113.980735

!
           310000000         0.0437966558          -118.046388       0.000132094131            4.5224318         0.0746258804           11.7099932       0.000330028292          -164.666516
      0.000132094131            4.5224318         0.0242051353          -132.481618        0.00015566789           178.840006         0.0504816011    30.06352029999999
        0.0746258804           11.7099932        0.00015566789           178.840006         0.0358125962          -113.545599 0.0004320677470000001           172.801886
      0.000330028292          -164.666516         0.0504816011    30.06352029999999 0.0004320677470000001           172.801886         0.0202010564          -103.881434

!
           320000000         0.0327828253          -118.624323       0.000136888092           -9.0327945         0.0871725176           1.44909752       0.000331195438           179.895953
      0.000136888092           -9.0327945         0.0108819524          -128.931365       0.000163670375           164.185188         0.0636040306           18.4412645
        0.0871725176           1.44909752       0.000163670375           164.185188         0.0257888767          -108.433905        0.00044818698           157.245459
      0.000331195438           179.895953         0.0636040306           18.4412645        0.00044818698           157.245459         0.0138278158   -72.55744710000001

!
           330000000          0.026662187          -122.539427        0.00014190724          -22.9075215         0.0938195611          -10.0091034       0.000330496279           164.665216
       0.00014190724          -22.9075215        0.00375405006          -103.552733       0.000171923064           149.097876         0.0707537451           7.08280104
        0.0938195611          -10.0091034       0.000171923064           149.097876         0.0207806074          -106.497607       0.000463553954           141.568788
      0.000330496279           164.665216         0.0707537451           7.08280104       0.000463553954           141.568788         0.0142480977          -51.7437714

!
           340000000         0.0237476394          -137.803664       0.000146970111   -37.06559859999999         0.0941086928          -22.0844381       0.000328147022           149.622548
      0.000146970111   -37.06559859999999       0.000488897621           56.8066568       0.000180146285           133.530452  0.07170002709999998          -3.53398853
        0.0941086928          -22.0844381       0.000180146285           133.530452         0.0176008259          -119.508675         0.0004780669           125.732811
      0.000328147022           149.622548  0.07170002709999998          -3.53398853         0.0004780669           125.732811         0.0124746158          -50.3188826

!
           350000000         0.0249109098          -167.491575       0.000151973539          -51.4656054  0.08795725660000001          -34.5197929       0.000324145893           134.752845
      0.000151973539          -51.4656054        0.00787854954           107.761933       0.000187887394           117.457931         0.0666426234          -12.7050185
 0.08795725660000001          -34.5197929       0.000187887394           117.457931         0.0167601304          -156.214156       0.000491280406           109.695023
      0.000324145893           134.752845         0.0666426234          -12.7050185       0.000491280406           109.695023        0.00517723531          -59.2988445

!
           360000000         0.0335677528           159.166539       0.000156873718          -66.0832879  0.07562479879999999          -47.1558897       0.000318321328           120.072955
      0.000156873718          -66.0832879         0.0211854596           106.266898       0.000194535936           100.898528         0.0563984348           -18.875951
 0.07562479879999999          -47.1558897       0.000194535936           100.898528          0.024332742           159.350901       0.000502379695           93.4330296
      0.000318321328           120.072955         0.0563984348           -18.875951       0.000502379695           93.4330296 0.008219114830000001           119.596174

!
           370000000         0.0502994449           132.934295        0.00016163489          -80.9214226          0.057739357          -59.7951933       0.000310480687           105.656622
       0.00016163489          -80.9214226  0.04012118569999999    98.77736450000002       0.000199397497           83.9290263  0.04309494019999999          -17.9918353
         0.057739357          -59.7951933       0.000199397497           83.9290263         0.0412066546           129.989111       0.000510279766           76.9653302
      0.000310480687           105.656622  0.04309494019999999          -17.9918353       0.000510279766           76.9653302         0.0272231946           106.538275

!
           380000000         0.0731460513           112.727723        0.00016616043           -96.003193         0.0353344207          -71.8896087       0.000300639299           91.6467045
       0.00016616043           -96.003193         0.0637281763    88.78862450000001       0.000201830691           66.6911856         0.0327124124         -0.806548017
        0.0353344207          -71.8896087       0.000201830691           66.6911856  0.06429683629999999           109.752364 0.0005138590080000001    60.36437620000001
      0.000300639299           91.6467045         0.0327124124         -0.806548017 0.0005138590080000001    60.36437620000001         0.0509231703           94.3376437

!
           390000000         0.0999916137    95.64793710000001       0.000170241513          -111.348464         0.0099022096          -77.8348565       0.000289260202           78.2421708
      0.000170241513          -111.348464          0.090593195           77.5476019       0.000201421541            49.384365         0.0367463936           27.9358603
        0.0099022096          -77.8348565       0.000201421541            49.384365          0.091295759           93.1022036 0.0005122855069999999           43.7568807