! Tyco Electronics Strada Whisper System
! NEXT_F1415_G1112
!! 
!! SYSTEM DESCRIPTION: Daughtercard-Footprint-Connector-Footprint-Daughtercard
!! PCB DESCRIPTION: DC: 140mil, Megtron7N, upper layer route, 15mil stub, 6-6-6mil 10" traces
!! CONNECTOR DESCRIPTION: Next-Gen STRADA Whisper Direct-Plug Orthogonal Connector
!! MODEL DESCRIPTION: Tyco Electronics System 4-port S-parameter 
!! MODEL STATUS: Developmental
!! MODEL GEOMETRY: Channel Model
!! MODEL FREQUENCY RANGE: DC to 60 GHz in 10 MHz frequency steps
!! MODEL EDGE RATE LIMITATION: 8.3 ps (Using conservative 0.5/Fmax rule of thumb)
!! 
!! TIME-DOMAIN TRANSFORM CAUTIONS: 
!! 1.) Do not simulate transient edge rates faster than the number listed above.  Edge rates faster than this number 
!!     contain significant spectral content at frequencies above the model's highest frequency. 
!! 2.) Even when simulating edge rates that are slower than the number listed above, be aware that the best time 
!!     resolution possible with a direct iFFT is (1 / 2Fmax).  As a result, time resolution is typically not adequate 
!!     for most time-domain simulations unless tricks such as windowing are used to minimize leakage and aliasing. 
!! 3.) Because the model has a uniform frequency step, a direct iFFT will result in an impulse that that has a time 
!!     length given by either (1 / Fstep) or (1 / 2Fstep), depending on the transform being used.  Care has been taken 
!!     in selecting the frequency step to ensure a settled impulse response for the model.  Therefore, convolution with 
!!     the model's impulse response should present no issues.  However, if directly concatenating s-parameter models 
!!     in the frequency domain a user must either interpolate necessary interim frequencies or complete impulse response 
!!     zero-padding.  Impulse response zero-padding is more difficult, but more accurate. 
!! 
!! PORT DEFINITIONS: 
!! Port   1  ----->  RX Side	F14     G11     RX Side  <-----  Port   3
!! Port   2  ----->  RX Side	F15     G12     RX Side  <-----  Port   4
!! 
!!!!!!!!!!!!!!!!!!!!!!!!!!!!!!!!!!!!!!!!!!!!!!!!!!!!!!!!!!!!!!!!!!!!!!!!!!!!!!!!!!!!!!!!!!!!!!!!!!!!!!!!!!!!!!!!!!!!!!!!! Touchstone data
! Created: 10-Dec-2018 by IdEM R2012 (8.0.5)
# Hz S MA R 50

!
                   0         0.0458690179                    0      1.13140537e-006                    0        0.00173984742                    0       1.7437131e-006                    0
     1.13140537e-006                    0          0.046292998                    0       6.7814047e-007                    0        0.00196338261                    0
       0.00173984742                    0       6.7814047e-007                    0         0.0461230118                    0       1.0778888e-006                    0
      1.7437131e-006                    0        0.00196338261                    0       1.0778888e-006                    0         0.0466760252                    0

!
            10000000         0.0540613715           16.2693564      3.10184537e-006   -72.31221340000001         0.0287506504           72.6860336      5.72031941e-006          -84.4350537
     3.10184537e-006   -72.31221340000001         0.0544331197           16.1216763      1.00782127e-005   -96.88302470000001         0.0287778068           72.3120409
        0.0287506504           72.6860336      1.00782127e-005   -96.88302470000001          0.054467951    16.46509010000001      3.51676139e-006             48.21646
     5.72031941e-006          -84.4350537         0.0287778068           72.3120409      3.51676139e-006             48.21646         0.0549229188           16.2063213

!
            20000000         0.0699369656           20.5185345      6.58993714e-006          -90.6716594         0.0555064831           60.6645377      1.14124639e-005          -106.020958
     6.58993714e-006          -90.6716594         0.0702533288           20.4172496      2.07662283e-005          -110.082729         0.0555614099    60.57197020000001
        0.0555064831           60.6645377      2.07662283e-005          -110.082729         0.0706597761           20.7477041      6.59906099e-006    32.64488010000001
     1.14124639e-005          -106.020958         0.0555614099    60.57197020000001      6.59906099e-006    32.64488010000001         0.0709816368           20.5241857

!
            30000000         0.0862063513           16.7728488      1.13091259e-005           -105.46517  0.07880233490000001           47.6522791      1.78775313e-005          -122.613727
     1.13091259e-005           -105.46517         0.0865338779           16.7744958      3.26261389e-005          -122.779803         0.0789310834           47.6964669
 0.07880233490000001           47.6522791      3.26261389e-005          -122.779803         0.0872827202           16.9855609 9.426539099999999e-006           11.2991011
     1.78775313e-005          -122.613727         0.0789310834           47.6964669 9.426539099999999e-006           11.2991011         0.0875482892           16.8810614

!
            40000000  0.09906276529999999    9.087482509999999      1.74295213e-005          -121.127315  0.09738791050000001           34.5162392      2.52769439e-005          -138.503083
     1.74295213e-005          -121.127315         0.0994784349    9.197762120000002       4.5992353e-005          -136.058097  0.09764836790000001    34.66170160000002
 0.09738791050000001           34.5162392       4.5992353e-005          -136.058097           0.10049942           9.28105747      1.18658998e-005          -11.9118538
     2.52769439e-005          -138.503083  0.09764836790000001    34.66170160000002      1.18658998e-005          -11.9118538          0.100800537    9.300647890000001

!
            50000000          0.106600888  -0.6129229470000001      2.50646072e-005          -137.997731          0.110371066           21.4092915      3.37774061e-005          -154.556872
     2.50646072e-005          -137.997731          0.107184504         -0.392482547      6.10602331e-005          -150.100111          0.110832109            21.643295
         0.110371066           21.4092915      6.10602331e-005          -150.100111          0.108400415         -0.433150996      1.38430945e-005   -36.46280709999999
     3.37774061e-005          -154.556872          0.110832109            21.643295      1.38430945e-005   -36.46280709999999           0.10883042  -0.2932521719999999

!
            60000000          0.107812696          -11.4781981      3.43096613e-005          -155.918297          0.117155411           8.34828076      4.35379829e-005          -171.036156
     3.43096613e-005          -155.918297          0.108647007          -11.1399876 7.792856790000001e-005          -164.921663          0.117894299    8.666046839999998
         0.117155411           8.34828076 7.792856790000001e-005          -164.921663           0.10997932          -11.3063254      1.53135363e-005   -62.56754109999999
     4.35379829e-005          -171.036156          0.117894299    8.666046839999998      1.53135363e-005   -62.56754109999999          0.110632948          -11.0448209

!
            70000000          0.102176327          -23.1525636      4.52405832e-005          -174.747917          0.117374894          -4.68515083      5.47029023e-005           171.940037
     4.52405832e-005          -174.747917          0.103345812          -22.6783368 9.660279910000001e-005           179.486138           0.11847375   -4.285641569999999
         0.117374894          -4.68515083 9.660279910000001e-005           179.486138          0.104716505          -22.9821267       1.6270765e-005   -90.80645370000001
     5.47029023e-005           171.940037           0.11847375   -4.285641569999999       1.6270765e-005   -90.80645370000001          0.105688784          -22.5889255

!
            80000000         0.0894907491          -35.5447488 5.786492800000001e-005           165.589632          0.110870157          -17.6935849      6.73559547e-005           154.286714
5.786492800000001e-005           165.589632  0.09107652920000001          -34.8963305       0.000116939682           163.125558          0.112409577           -17.215767
         0.110870157          -17.6935849       0.000116939682           163.125558         0.0924114966          -35.3651089      1.67970819e-005          -122.046402
     6.73559547e-005           154.286714          0.112409577           -17.215767      1.67970819e-005          -122.046402         0.0937927261          -34.8155523

!
            90000000         0.0698535914   -48.80286950000001 7.203962969999999e-005           145.142855  0.09773306629999999          -30.6029621      8.14370303e-005           135.945094
7.203962969999999e-005           145.142855         0.0719213945   -47.88876059999999       0.000138547882           146.003426         0.0997805775          -30.0590013
 0.09773306629999999          -30.6029621       0.000138547882           146.003426         0.0731590709   -48.58368410000001      1.71734081e-005          -157.266597
     8.14370303e-005           135.945094         0.0997805775          -30.0590013      1.71734081e-005          -157.266597  0.07502319590000001          -47.8169465

!
           100000000         0.0437529377          -63.7757029 8.738089360000001e-005           123.979241          0.078417903          -43.1296995      9.66444582e-005           116.909247
8.738089360000001e-005           123.979241  0.04632677339999999   -62.26310089999999       0.000160688929           128.159657         0.0810100436          -42.5617305
         0.078417903          -43.1296995       0.000160688929           128.159657  0.04743743769999999   -63.35671659999999        1.801032e-005           163.175309
     9.66444582e-005           116.909247         0.0810100436          -42.5617305        1.801032e-005           163.175309  0.04981887920000001          -62.1548758

!
           110000000         0.0125313662          -91.2152396        0.00010321187           102.223093         0.0538977948          -54.2867693       0.000112373905           97.2579382
       0.00010321187           102.223093         0.0153847772          -84.4538178       0.000182252733           109.696993         0.0570145802          -53.8674299
        0.0538977948          -54.2867693       0.000182252733           109.696993         0.0164525793          -86.8067195      2.01770397e-005           120.923086
      0.000112373905           97.2579382         0.0570145802          -53.8674299      2.01770397e-005           120.923086         0.0192279454          -82.6999137

!
           120000000         0.0244157687           105.029919       0.000118606566           80.0745221         0.0260056109          -58.6254468       0.000127760589           77.1712637
      0.000118606566           80.0745221         0.0207376955           105.595811       0.000201886588    90.79725550000001         0.0294826224          -59.7183099
        0.0260056109          -58.6254468       0.000201886588    90.79725550000001         0.0201275214           107.889414        2.429467e-005           79.4753849
      0.000127760589           77.1712637         0.0294826224          -59.7183099        2.429467e-005           79.4753849          0.016712631           109.772628

!
           130000000         0.0621350443    85.30587010000002       0.000132561723           57.8013831         0.0101688434           34.5148539       0.000141861775           56.9177316
      0.000132561723           57.8013831         0.0581622981    85.59777440000001       0.000218295288           71.7120123        0.00866188121           13.0978555
        0.0101688434           34.5148539       0.000218295288           71.7120123  0.05743626749999999    85.99937319999999      3.02824831e-005    41.38035859999999
      0.000141861775           56.9177316        0.00866188121           13.0978555      3.02824831e-005    41.38035859999999         0.0536871832           86.6282622

!
           140000000         0.0998983968           70.1769316       0.000144250872    35.70342460000001         0.0373371262    62.16606770000001       0.000153929115           36.8093441
      0.000144250872    35.70342460000001         0.0958000128    70.61289840000001       0.000230606994    52.72511750000001         0.0334054421           61.2703524
        0.0373371262    62.16606770000001       0.000230606994    52.72511750000001         0.0949088605           70.6137305      3.75406581e-005           7.04614796
      0.000153929115           36.8093441         0.0334054421           61.2703524      3.75406581e-005           7.04614796         0.0910376631    71.28726810000001

!
           150000000          0.135423647    56.00678549999999       0.000153239515           14.0606782         0.0653278014           54.0834899       0.000163635713           17.1383829
      0.000153239515           14.0606782          0.131386535           56.5361836       0.000238612882    34.09929319999999  0.06131852149999999    54.41622060000001
        0.0653278014           54.0834899       0.000238612882    34.09929319999999          0.130188972           56.3657462      4.53662763e-005          -24.0876665
      0.000163635713           17.1383829  0.06131852149999999    54.41622060000001      4.53662763e-005          -24.0876665          0.126395452           57.0978326

!
           160000000          0.166941211           42.3451637       0.000159549665          -6.91338502  0.08991745080000001           42.8478522       0.000171133777          -1.88006457
      0.000159549665          -6.91338502          0.163134039           42.9287643       0.000242747486           16.0286215  0.08606072939999999            43.485847
 0.08991745080000001           42.8478522       0.000242747486           16.0286215          0.161493942           42.6751326      5.31999293e-005          -52.6446977
      0.000171133777          -1.88006457  0.08606072939999999            43.485847      5.31999293e-005          -52.6446977          0.157958905    43.44573870000001

!
           170000000           0.19323595           29.0777357       0.000163560177          -27.0973079          0.109884735            30.986967        0.00017692995          -20.1395584
      0.000163560177          -27.0973079          0.189787569    29.68911830000001       0.000243845727            -1.384951          0.106310739    31.74688640000001
         0.109884735            30.986967       0.000243845727            -1.384951          0.187595866    29.40007450000001      6.07072777e-005          -79.1076295
       0.00017692995          -20.1395584          0.106310739    31.74688640000001      6.07072777e-005          -79.1076295          0.184460255    30.19129420000001

!
           180000000          0.213613457           16.1387024       0.000165822557   -46.46197800000001           0.12463226           19.0719185       0.000181670908          -37.6417522
      0.000165822557   -46.46197800000001          0.210609152    16.76040830000001       0.000242832652          -18.1267359          0.121420093           19.8919681
          0.12463226           19.0719185       0.000242832652          -18.1267359          0.207787043           16.4666822 6.776511999999999e-005          -103.850817
      0.000181670908          -37.6417522          0.121420093           19.8919681 6.776511999999999e-005          -103.850817          0.205147692           17.2656927

!
           190000000          0.227770487           3.45740492       0.000166886013          -65.0531312          0.133932345    7.254038310000001       0.000185947399   -54.47134300000001
      0.000166886013          -65.0531312          0.225259849           4.07806461       0.000240486971   -34.24405809999999          0.131126669    8.109317900000001
         0.133932345    7.254038310000001       0.000240486971   -34.24405809999999          0.221752281    3.802120930000001 7.440107850000001e-005          -127.191033
      0.000185947399   -54.47134300000001          0.131126669    8.109317900000001 7.440107850000001e-005          -127.191033          0.219669226    4.600450180000001

!
           200000000          0.235645985   -9.047694559999998       0.000167179631   -82.96607160000001          0.137753825          -4.45432415       0.000190172302          -70.7594117
      0.000167179631   -82.96607160000001          0.233654912   -8.435826629999999       0.000237330174          -49.8125686          0.135379358   -3.573690330000001
         0.137753825          -4.45432415       0.000237330174          -49.8125686          0.229421491          -8.67465773 8.072260080000001e-005          -149.416133
      0.000190172302          -70.7594117          0.135379358   -3.573690330000001 8.072260080000001e-005          -149.416133          0.227929443   -7.882753220000002

!
           210000000          0.237307951          -21.4625903       0.000166952577          -100.318982          0.136148009          -16.0875298       0.000194533815          -86.6460783
      0.000166952577          -100.318982          0.235849285          -20.8660297       0.000233623297          -64.9030326          0.134220301           -15.185225
         0.136148009          -16.0875298       0.000233623297          -64.9030326          0.230857578          -21.0472848 8.685369789999999e-005          -170.796755
      0.000194533815          -86.6460783          0.134220301           -15.185225 8.685369789999999e-005          -170.796755          0.229975977          -20.2668499

!
           220000000          0.232899904   -33.86794340000001       0.000166255332          -117.226167          0.129206534          -27.6769564       0.000199002757          -102.248543
      0.000166255332          -117.226167          0.231979741          -33.2945939       0.000229435027          -79.5527867          0.127736809          -26.7560783
         0.129206534          -27.6769564       0.000229435027          -79.5527867          0.226203617   -33.39204709999999 9.288226929999998e-005           168.411648
      0.000199002757          -102.248543          0.127736809          -26.7560783 9.288226929999998e-005           168.411648          0.225942174   -32.62991600000001

!
           230000000           0.22265061   -46.32816560000001       0.000164951584          -133.769667          0.117090255          -39.2055834       0.000203378202          -117.636542
      0.000164951584          -133.769667          0.222268866   -45.79058070000001       0.000224758355          -93.7437209          0.116083302          -38.2744928
         0.117090255          -39.2055834       0.000224758355          -93.7437209          0.215693118          -45.7661648      9.88144517e-005           147.973872
      0.000203378202          -117.636542          0.116083302          -38.2744928      9.88144517e-005           147.973872          0.216051366   -45.03426410000001

!
           240000000          0.206939275          -58.8799304       0.000162766248          -149.967974          0.100118105          -50.5372278       0.000207370229          -132.816014
      0.000162766248          -149.967974           0.20708401          -58.3998162       0.000219669047          -107.390768         0.0995630126           -49.619144
         0.100118105          -50.5372278       0.000219669047          -107.390768          0.199715558   -58.19460050000001       0.000104535857           127.687186
      0.000207370229          -132.816014         0.0995630126           -49.619144       0.000104535857           127.687186           0.20067592          -57.5147147

!
           250000000           0.18639608   -71.52111979999999       0.000159385874          -165.743854         0.0788981971   -61.24392690000001       0.000210725542          -147.723676
      0.000159385874          -165.743854           0.18703228          -71.1359611       0.000214515106          -120.351866         0.0787518842          -60.3995819
        0.0788981971   -61.24392690000001       0.000214515106          -120.351866          0.178916764   -70.65569480000001       0.000109789099           107.399471
      0.000210725542          -147.723676         0.0787518842          -60.3995819       0.000109789099           107.399471          0.180431972          -70.0667699

!
           260000000          0.161999996          -84.2025649       0.000154622268            179.10124  0.05449975560000001          -69.9743596       0.000213388259          -162.238856
      0.000154622268            179.10124          0.163055753   -83.97587030000001       0.000210088014          -132.478591         0.0546591772   -69.37851330000001
 0.05449975560000001          -69.9743596       0.000210088014          -132.478591          0.154295922   -83.06630800000001       0.000114185072    87.02797430000001
      0.000213388259          -162.238856         0.0546591772   -69.37851330000001       0.000114185072    87.02797430000001           0.15627381   -82.63630640000001

!
           270000000          0.135120194          -96.8261195       0.000148622791           164.891281         0.0289515477          -70.5533365       0.000215651558          -176.220083
      0.000148622791           164.891281          0.136475727   -96.86429889999999       0.000207661956          -143.721401         0.0291603559   -70.90730600000002
        0.0289515477          -70.5533365       0.000207661956          -143.721401          0.127245701   -95.26606510000002       0.000117261134    66.56968809999999
      0.000215651558          -176.220083         0.0291603559   -70.90730600000002       0.000117261134    66.56968809999999          0.129536667          -95.1127309

!
           280000000          0.107453096          -109.253298        0.00014207073           152.033102         0.0128122713          -13.3207905       0.000218218872            170.43358
       0.00014207073           152.033102          0.108939005          -109.735835       0.000208762821          -154.258365         0.0119569162          -14.5626103
        0.0128122713          -13.3207905       0.000208762821          -154.258365  0.09948874410000001          -106.995089       0.000118576517    46.09550549999999
      0.000218218872            170.43358         0.0119569162          -14.5626103       0.000118576517    46.09550549999999           0.10188116          -107.325982

!
           290000000         0.0808474337          -121.332629       0.000136286037            140.88871         0.0304292934            32.125552       0.000222103556            157.71536
      0.000136286037            140.88871  0.08225647329999999          -122.570527       0.000214663616          -164.540309         0.0295538333           34.7616962
        0.0304292934            32.125552       0.000214663616          -164.540309  0.07290500920000001          -117.847331       0.000117805822            25.728133
      0.000222103556            157.71536         0.0295538333           34.7616962       0.000117805822            25.728133          0.075129606          -119.044871

!
           300000000  0.05706681970000001          -132.979516       0.000133118436            131.53246  0.05239008190000001           29.6484092       0.000228381048           145.475253
      0.000133118436            131.53246         0.0581817115          -135.534863       0.000225885999          -175.155103         0.0519112768    32.20932789999999
 0.05239008190000001           29.6484092       0.000225885999          -175.155103  0.04930121060000001          -127.162304       0.000114783434           5.61463055
      0.000228381048           145.475253         0.0519112768    32.20932789999999       0.000114783434           5.61463055         0.0510387975          -129.979357

!
           310000000         0.0375708118          -144.460354       0.000134537036           123.474875  0.07074217150000001           20.4078007       0.000237914092           133.445993
      0.000134537036           123.474875  0.03822085980000001          -149.390178       0.000242079301           173.408989         0.0708013882           22.9195787
 0.07074217150000001           20.4078007       0.000242079301           173.408989         0.0301945014          -133.834998       0.000109480474          -14.0883004
      0.000237914092           133.445993         0.0708013882           22.9195787       0.000109480474          -14.0883004         0.0310818406          -139.861514

!
           320000000         0.0233951423          -157.445293       0.000141980012           115.650785         0.0838624999           9.39861254       0.000251189752           121.318227
      0.000141980012           115.650785         0.0236001857          -166.685916       0.000262308941           160.900399         0.0846143478           11.9219605
        0.0838624999           9.39861254       0.000262308941           160.900399          0.016600379          -136.575072       0.000101941758          -33.1967447
      0.000251189752           121.318227         0.0846143478           11.9219605       0.000101941758          -33.1967447         0.0162817553          -149.262328

!
           330000000         0.0153339615          -177.393739       0.000155855354           106.876035         0.0909562006          -2.17290915       0.000268303885           108.816268
      0.000155855354           106.876035         0.0156084207           167.107649       0.000285431506           147.275286  0.09253683979999999   0.3996750690000001
        0.0909562006          -2.17290915       0.000285431506           147.275286        0.00857052073          -139.596864      9.22400152e-005          -51.4271326
      0.000268303885           108.816268  0.09253683979999999   0.3996750690000001      9.22400152e-005          -51.4271326 0.007184669630000001          -166.531215

!
           340000000         0.0146027158           153.252492       0.000175565886           96.3868344  0.09166473249999999          -13.8209626       0.000289011617           95.7373501
      0.000175565886           96.3868344         0.0155202283           136.524504       0.000310285056           132.598896  0.09417942679999999          -11.1769772
 0.09166473249999999          -13.8209626       0.000310285056           132.598896 0.005638979409999999          -175.200062      8.05137837e-005   -68.22388220000001
      0.000289011617           95.7373501  0.09417942679999999          -11.1769772      8.05137837e-005   -68.22388220000001        0.00554518885           141.745662

!
           350000000         0.0215515763           130.242796       0.000199874304            83.967696  0.08598497049999999          -25.1869298       0.000312744537           81.9569252
      0.000199874304            83.967696         0.0224000244           118.293114       0.000335672287           116.971666         0.0894975036          -22.4693673
 0.08598497049999999          -25.1869298       0.000335672287           116.971666         0.0113468859           137.917221      6.71825788e-005          -82.3691821
      0.000312744537           81.9569252         0.0894975036          -22.4693673      6.71825788e-005          -82.3691821         0.0120777972           117.494082

!
           360000000          0.035016102    115.6939090000001       0.000227186665    69.75777290000001         0.0742841784   -35.73168650000001       0.000338568277           67.4232968
      0.000227186665    69.75777290000001         0.0350857823           108.020798 0.0003602572199999999           100.503339         0.0788016822           -32.989567
        0.0742841784   -35.73168650000001 0.0003602572199999999           100.503339         0.0245876162           119.345679      5.35708808e-005          -91.1460871
      0.000338568277           67.4232968         0.0788016822           -32.989567      5.35708808e-005          -91.1460871         0.0244687738           109.483124

!
           370000000           0.05413963           103.632188       0.000255652105           54.0488143          0.057420602          -44.1625036       0.000365141348           52.1572201
      0.000255652105           54.0488143          0.053275639    98.84391960000001       0.000382513108    83.31908439999999  0.06286708050000001          -41.6371274
         0.057420602          -44.1625036       0.000382513108    83.31908439999999          0.043640547           106.377999      4.34524073e-005   -89.82974900000001
      0.000365141348           52.1572201  0.06286708050000001          -41.6371274      4.34524073e-005   -89.82974900000001         0.0424906716            101.13963

!
           380000000  0.07796804490000001    91.77459260000001       0.000283236732           37.1845532         0.0372058086          -46.0589774       0.000390780965           36.2557083
      0.000283236732           37.1845532          0.076307973           88.8509823       0.000400821234    65.57534939999999         0.0433095037   -45.04306259999999
        0.0372058086          -46.0589774       0.000400821234    65.57534939999999         0.0674694007    94.04089990000001      4.38759449e-005          -79.7452126
      0.000390780965           36.2557083         0.0433095037   -45.04306259999999      4.38759449e-005          -79.7452126           0.06545721           91.2084394

!
           390000000          0.105143163    79.63523429999999         0.0003079217           19.5262215         0.0199119591          -19.7808897       0.000413713998           19.8894752
        0.0003079217           19.5262215          0.102963867           77.9242646       0.000413744441    47.46803870000001         0.0247952958           -29.075679
        0.0199119591          -19.7808897       0.000413744441    47.46803870000001  0.09469902999999999           81.5656891 5.708836050000001e-005          -76.4920029