! Tyco Electronics Strada Whisper System
! FEXT_H1415_G1112
!! 
!! SYSTEM DESCRIPTION: Daughtercard-Footprint-Connector-Footprint-Daughtercard
!! PCB DESCRIPTION: DC: 140mil, Megtron7N, upper layer route, 15mil stub, 6-6-6mil 10" traces
!! CONNECTOR DESCRIPTION: Next-Gen STRADA Whisper Direct-Plug Orthogonal Connector
!! MODEL DESCRIPTION: Tyco Electronics System 4-port S-parameter 
!! MODEL STATUS: Developmental
!! MODEL GEOMETRY: Channel Model
!! MODEL FREQUENCY RANGE: DC to 60 GHz in 10 MHz frequency steps
!! MODEL EDGE RATE LIMITATION: 8.3 ps (Using conservative 0.5/Fmax rule of thumb)
!! 
!! TIME-DOMAIN TRANSFORM CAUTIONS: 
!! 1.) Do not simulate transient edge rates faster than the number listed above.  Edge rates faster than this number 
!!     contain significant spectral content at frequencies above the model's highest frequency. 
!! 2.) Even when simulating edge rates that are slower than the number listed above, be aware that the best time 
!!     resolution possible with a direct iFFT is (1 / 2Fmax).  As a result, time resolution is typically not adequate 
!!     for most time-domain simulations unless tricks such as windowing are used to minimize leakage and aliasing. 
!! 3.) Because the model has a uniform frequency step, a direct iFFT will result in an impulse that that has a time 
!!     length given by either (1 / Fstep) or (1 / 2Fstep), depending on the transform being used.  Care has been taken 
!!     in selecting the frequency step to ensure a settled impulse response for the model.  Therefore, convolution with 
!!     the model's impulse response should present no issues.  However, if directly concatenating s-parameter models 
!!     in the frequency domain a user must either interpolate necessary interim frequencies or complete impulse response 
!!     zero-padding.  Impulse response zero-padding is more difficult, but more accurate. 
!! 
!! PORT DEFINITIONS: 
!! Port   1  ----->  TX Side	H14     G11     RX Side  <-----  Port   3
!! Port   2  ----->  TX Side	H15     G12     RX Side  <-----  Port   4
!! 
!!!!!!!!!!!!!!!!!!!!!!!!!!!!!!!!!!!!!!!!!!!!!!!!!!!!!!!!!!!!!!!!!!!!!!!!!!!!!!!!!!!!!!!!!!!!!!!!!!!!!!!!!!!!!!!!!!!!!!!!
! Touchstone data
! Created: 10-Dec-2018 by IdEM R2012 (8.0.5)
# Hz S MA R 50

!
                   0         0.0455705288                    0 9.664058759999999e-007                  180        0.00193010646                    0      1.30595367e-006                  180
9.664058759999999e-007                  180         0.0476127907                    0      6.77358006e-007                  180        0.00221296911                    0
       0.00193010646                    0      6.77358006e-007                  180         0.0456832456                    0      1.21624543e-006                  180
     1.30595367e-006                  180        0.00221296911                    0      1.21624543e-006                  180         0.0480502051                    0

!
            10000000         0.0538762306           16.5111362 8.560772979999999e-006    80.41738830000001         0.0288677727    72.29432850000001       3.0081307e-006          -138.898943
8.560772979999999e-006    80.41738830000001  0.05608803600000001           16.2621467      1.69683192e-005           76.0079545         0.0281098721           71.6437056
        0.0288677727    72.29432850000001      1.69683192e-005           76.0079545          0.054136933            16.748637      1.93139723e-006           117.441783
      3.0081307e-006          -138.898943         0.0281098721           71.6437056      1.93139723e-006           117.441783         0.0565307128           16.1482473

!
            20000000         0.0699546212           20.7560436      1.68326998e-005           61.3471857         0.0557209409           60.4184616      5.41397418e-006           -150.38332
     1.68326998e-005           61.3471857         0.0726333136           20.5108021      3.34585685e-005           58.7761059         0.0541652008           60.1289367
        0.0557209409           60.4184616      3.34585685e-005           58.7761059  0.07050954380000002           21.0398567      3.34200588e-006    87.82580160000001
     5.41397418e-006           -150.38332         0.0541652008           60.1289367      3.34200588e-006    87.82580160000001  0.07311802470000001           20.3804601

!
            30000000         0.0864208932           16.9309561      2.47735071e-005           44.6749295         0.0791148481           47.4289802      7.62475506e-006          -169.630799
     2.47735071e-005           44.6749295         0.0897177296           16.7471671      4.92095185e-005           42.5580101  0.07675362400000001           47.2887456
        0.0791148481           47.4289802      4.92095185e-005           42.5580101          0.087291249           17.2078258      5.08002335e-006    67.57991149999999
     7.62475506e-006          -169.630799  0.07675362400000001           47.2887456      5.08002335e-006    67.57991149999999  0.09028115500000002           16.6244685

!
            40000000           0.09946157    9.153988549999999      3.22989231e-005           28.8676933  0.09779588889999999           34.2795519 9.483936990000001e-006            168.74625
     3.22989231e-005           28.8676933          0.103421715    9.030644300000002 6.405710780000001e-005           26.8498402         0.0946082602           34.2490506
 0.09779588889999999           34.2795519 6.405710780000001e-005           26.8498402          0.100642447    9.426390939999999 7.144255120000001e-006           49.7839793
9.483936990000001e-006            168.74625         0.0946082602           34.2490506 7.144255120000001e-006           49.7839793           0.10408694    8.912676740000002

!
            50000000          0.107177685         -0.646790217      3.94082792e-005           13.6240454          0.110871587           21.1373194      1.09197542e-005           145.772412
     3.94082792e-005           13.6240454          0.111790592         -0.710766636       7.7969945e-005           11.5651809          0.106828928           21.2189788
         0.110871587           21.1373194       7.7969945e-005           11.5651809          0.108661938         -0.365147612 9.577606900000001e-006    32.52085889999999
     1.09197542e-005           145.772412          0.106828928           21.2189788 9.577606900000001e-006    32.52085889999999          0.112573075  -0.8318266630000001

!
            60000000          0.108566808          -11.6328077      4.61585944e-005           -1.1850075           0.11774578           8.01929502      1.19037353e-005           121.537646
     4.61585944e-005           -1.1850075          0.113790845           -11.623882 9.101916350000002e-005   -3.339680749999999          0.112814155    8.240236210000001
          0.11774578           8.01929502 9.101916350000002e-005   -3.339680749999999           0.11034941          -11.3232503      1.24204512e-005           15.1302683
     1.19037353e-005           121.537646          0.112814155    8.240236210000001      1.24204512e-005           15.1302683          0.114702839          -11.7578492

!
            70000000          0.103111584           -23.470566       5.2637019e-005          -15.6595093           0.11805217   -5.100194460000001      1.24487638e-005           95.7449203
      5.2637019e-005          -15.6595093           0.10888624          -23.3466398       0.000103336732          -17.9108332          0.112196043   -4.683631390000001
          0.11805217   -5.100194460000001       0.000103336732          -17.9108332           0.10518962          -23.1052065      1.56999367e-005          -2.63891972
     1.24487638e-005           95.7449203          0.112196043   -4.683631390000001      1.56999367e-005          -2.63891972          0.109938625           -23.506967

!
            80000000         0.0906160528          -36.1140894      5.89325092e-005          -29.8958057          0.111629508          -18.2407182       1.2625066e-005    67.84062160000001
     5.89325092e-005          -29.8958057         0.0968700795          -35.7707707       0.000115075633          -32.1995094          0.104819812          -17.5205701
         0.111629508          -18.2407182       0.000115075633          -32.1995094  0.09298637110000001   -35.64164050000001      1.94209951e-005   -20.88001720000001
      1.2625066e-005    67.84062160000001          0.104819812          -17.5205701      1.94209951e-005   -20.88001720000001         0.0980727899           -35.979104

!
            90000000  0.07118847730000001          -49.8264404      6.51107481e-005          -43.9839057  0.09856426270000002          -31.3653856      1.25969485e-005            37.122393
     6.51107481e-005          -43.9839057         0.0778443773   -48.98764850000001       0.000126380273          -46.2560923  0.09079555089999999          -30.1199416
 0.09856426270000002          -31.3653856       0.000126380273          -46.2560923         0.0738415266          -49.1244819      2.35541776e-005   -39.61119710000001
     1.25969485e-005            37.122393  0.09079555089999999          -30.1199416      2.35541776e-005   -39.61119710000001         0.0792066105          -49.2852879

!
           100000000         0.0453584352          -65.8685895      7.11965887e-005          -57.9955235  0.07929732339999999          -44.2831119      1.26700491e-005           3.09510382
     7.11965887e-005          -57.9955235         0.0523079775          -63.5445034        0.00013737154          -60.1227677  0.07062542450000001          -41.9791931
 0.07929732339999999          -44.2831119        0.00013737154          -60.1227677         0.0482553411          -64.4919508      2.80227102e-005          -58.7981241
     1.26700491e-005           3.09510382  0.07062542450000001          -41.9791931      2.80227102e-005          -58.7981241  0.05384115899999999          -64.0276915

!
           110000000         0.0148717473   -97.54314450000001 7.717043829999999e-005          -71.9700631         0.0547624952          -56.3076499      1.32867262e-005          -33.7031985
7.717043829999999e-005          -71.9700631         0.0214051632          -83.8401231       0.000148149553   -73.82790420000001         0.0454226427   -51.19628359999999
        0.0547624952          -56.3076499       0.000148149553   -73.82790420000001         0.0176093122   -90.33095109999999      3.26957439e-005   -78.35523480000001
     1.32867262e-005          -33.7031985         0.0454226427   -51.19628359999999      3.26957439e-005   -78.35523480000001         0.0231490691   -84.68412950000001

!
           120000000         0.0234349471           112.632288      8.29853644e-005          -85.9056708         0.0265820846          -63.7143492      1.48649304e-005   -71.11331560000001
     8.29853644e-005          -85.9056708         0.0148989536           111.336858       0.000158814621   -87.38495740000001         0.0180456225          -43.4761336
        0.0265820846          -63.7143492       0.000158814621   -87.38495740000001         0.0197377411           113.212558      3.73968353e-005   -98.14528140000002
     1.48649304e-005   -71.11331560000001         0.0180456225          -43.4761336      3.73968353e-005   -98.14528140000002         0.0135032091           116.828423

!
           130000000         0.0606431597    88.65327170000002      8.86048065e-005   -99.76284389999999        0.00748994237           37.4162922      1.75543509e-005          -106.544472
     8.86048065e-005   -99.76284389999999         0.0516454652           85.4732509       0.000169499527          -100.798145         0.0194914725           55.4204343
       0.00748994237           37.4162922       0.000169499527          -100.798145         0.0567020863           88.1253731      4.19325686e-005          -117.988945
     1.75543509e-005          -106.544472         0.0194914725           55.4204343      4.19325686e-005          -117.988945         0.0498515645    86.73269569999999

!
           140000000          0.098216923           72.5699049      9.40470029e-005          -113.483635         0.0355376108           65.9974706      2.12016348e-005          -138.748272
     9.40470029e-005          -113.483635         0.0885319019           69.7753647       0.000180396642          -114.074198         0.0486770654    61.25023280000001
        0.0355376108           65.9974706       0.000180396642          -114.074198  0.09405742059999998    72.10565459999999      4.61348733e-005          -137.688335
     2.12016348e-005          -138.748272         0.0486770654    61.25023280000001      4.61348733e-005          -137.688335         0.0866027006           70.5503677

!
           150000000          0.133627079           58.0208591       9.9412951e-005            -127.0205         0.0636809525           56.6661218      2.55267508e-005          -167.828229
      9.9412951e-005            -127.0205          0.123071423           55.4499869       0.000191761844          -127.235147  0.07706016509999999           52.1192482
        0.0636809525           56.6661218       0.000191761844          -127.235147          0.129258535           57.6142627      4.98994302e-005          -157.058749
     2.55267508e-005          -167.828229  0.07706016509999999           52.1192482      4.98994302e-005          -157.058749           0.12104916           56.0580208

!
           160000000          0.165069442           44.1894697       0.000104882136          -140.362174         0.0883260422           44.9641691      3.02724874e-005           165.621681
      0.000104882136          -140.362174          0.153505763           41.7510105       0.000203890427          -140.325514          0.101886138           40.6692124
        0.0883260422           44.9641691       0.000203890427          -140.325514          0.160500469           43.8173209 5.320284550000001e-005          -175.957213
     3.02724874e-005           165.621681          0.101886138           40.6692124 5.320284550000001e-005          -175.957213          0.151414179           42.2846183

!
           170000000          0.191317189            30.859762       0.000110679721          -153.545881          0.108329051    32.91017419999999      3.52562086e-005           141.002523
      0.000110679721          -153.545881          0.178652917           28.5037275       0.000217077484          -153.410909          0.121981052    28.67154280000001
         0.108329051    32.91017419999999       0.000217077484          -153.410909          0.186549213           30.5057627       5.6094185e-005           165.701477
     3.52562086e-005           141.002523          0.121981052    28.67154280000001       5.6094185e-005           165.701477          0.176507433           29.0043802

!
           180000000          0.211670044           17.9292679        0.00011703226          -166.653628          0.123110684           20.9412197      4.03661148e-005           117.824821
       0.00011703226          -166.653628           0.19785321           15.6216214       0.000231579978          -166.570487          0.136767508           16.5924418
         0.123110684           20.9412197       0.000231579978          -166.570487          0.206695155           17.5821085       5.8670072e-005           147.942975
     4.03661148e-005           117.824821          0.136767508           16.5924418       5.8670072e-005           147.942975          0.195662873           16.1138299

!
           190000000          0.225821871    5.314041000000001       0.000124127062          -179.797627          0.132450675    9.165640990000002 4.553710249999999e-005    95.69930100000001
      0.000124127062          -179.797627          0.210830826    3.024826210000001       0.000247587817           -179.88804          0.146029252           4.55387166
         0.132450675    9.165640990000002       0.000247587817           -179.88804          0.220623222            4.9653372      6.10462319e-005           130.741381
4.553710249999999e-005    95.69930100000001          0.146029252           4.55387166      6.10462319e-005           130.741381          0.208599731           3.52688055

!
           200000000          0.233711385   -7.069276819999999       0.000132080392           166.898202          0.136324434   -2.413232670000001      5.07221886e-005           74.3109633
      0.000132080392           166.898202          0.217542455          -9.37189246       0.000265199291           166.555237          0.149739751   -7.450681399999999
         0.136324434   -2.413232670000001       0.000265199291           166.555237           0.22826512          -7.42622152      6.33332457e-005           114.031276
     5.07221886e-005           74.3109633          0.149739751   -7.450681399999999      6.33332457e-005           114.031276          0.215271479          -8.84321963

!
           210000000          0.235409346          -19.3005824       0.000140912254           153.315844          0.134792899          -13.8181518 5.586585010000001e-005           53.4006816
      0.000140912254           153.315844          0.218066015          -21.6538011       0.000284391991           152.686142          0.147952362          -19.4795846
         0.134792899          -13.8181518       0.000284391991           152.686142          0.229687447           -19.671466      6.56176552e-005           97.7205311
5.586585010000001e-005           53.4006816          0.147952362          -19.4795846      6.56176552e-005           97.7205311          0.215754882           -21.080318

!
           220000000          0.231065751           -31.446683       0.000150524683           139.358134          0.127963657          -25.0469253      6.08813514e-005    32.75534030000001
      0.000150524683           139.358134           0.21255159   -33.89555609999999       0.000304984604           138.444558           0.14076279          -31.6049149
         0.127963657          -25.0469253       0.000304984604           138.444558          0.225039472          -31.8365045      6.79463163e-005           81.7038237
     6.08813514e-005    32.75534030000001           0.14076279          -31.6049149      6.79463163e-005           81.7038237           0.21020123   -33.25491459999999

!
           230000000          0.220920717          -43.5482813       0.000160684981           124.961099          0.116025158   -36.01324560000001 6.563309839999999e-005           12.2041724
      0.000160684981           124.961099          0.201237351   -46.14772730000001       0.000326594779           123.789764          0.128340255          -43.8872628
         0.116025158   -36.01324560000001       0.000326594779           123.789764          0.214564426           -43.961217      7.03128178e-005           65.8787445
6.563309839999999e-005           12.2041724          0.128340255          -43.8872628      7.03128178e-005           65.8787445          0.198852614          -45.4098711

!
           240000000          0.205371412          -55.6038108       0.000171022322           110.104009  0.09934808539999999           -46.437434      6.99263666e-005   -8.380551609999998
      0.000171022322           110.104009          0.184521964          -58.4201674       0.000348610867           108.708291          0.111012794          -56.3536867
 0.09934808539999999           -46.437434       0.000348610867           108.708291          0.198666554          -56.0423569      7.26487818e-005           50.1661102
     6.99263666e-005   -8.380551609999998          0.111012794          -56.3536867      7.26487818e-005           50.1661102          0.182114818           -57.541696

!
           250000000          0.185075152   -67.54966500000001       0.000181051916    94.81629300000002         0.0786531421          -55.5638099       7.3509059e-005   -29.08022929999999
      0.000181051916    94.81629300000002           0.16307192   -70.66086780000001       0.000370206066    93.22180779999999         0.0893796078          -68.9701476
        0.0786531421          -55.5638099       0.000370206066    93.22180779999999          0.178013818          -68.0121563      7.48279672e-005    34.53332330000001
      7.3509059e-005   -29.08022929999999         0.0893796078          -68.9701476      7.48279672e-005    34.53332330000001          0.160665505          -69.5749665

!
           260000000          0.161051215   -79.23601840000001       0.000190239191           79.1787586         0.0553199969   -61.17123650000001       7.6091105e-005          -49.9266817
      0.000190239191           79.1787586          0.137923683           -82.726647       0.000390422812           77.3916753          0.064407427          -81.5805122
        0.0553199969   -61.17123650000001       0.000390422812           77.3916753          0.153638667   -79.71018410000001 7.669343560000001e-005           19.0149713
      7.6091105e-005          -49.9266817          0.064407427          -81.5805122 7.669343560000001e-005           19.0149713          0.135558191   -81.32337630000001

!
           270000000          0.134728895          -90.3956386       0.000198101374           63.3158032         0.0325676119          -54.8553406 7.738349860000001e-005          -70.9028275
      0.000198101374           63.3158032           0.11052635          -94.3328849       0.000408331729           61.3161515         0.0374602498          -93.6187041
        0.0325676119          -54.8553406       0.000408331729           61.3161515          0.126985092   -90.84190440000002      7.81122475e-005    3.720645160000001
7.738349860000001e-005          -70.9028275         0.0374602498          -93.6187041      7.81122475e-005    3.720645160000001           0.10826969          -92.4169105

!
           280000000           0.10789605          -100.599117       0.000204318552            47.377208         0.0225975628          -12.1289531      7.71493862e-005   -91.95107969999999
      0.000204318552            47.377208         0.0826827208          -104.937507       0.000423225184           45.1180212         0.0102911594   -99.37920750000002
        0.0225975628          -12.1289531       0.000423225184           45.1180212         0.0998589555          -100.906183      7.90463675e-005          -11.1802056
     7.71493862e-005   -91.95107969999999         0.0102911594   -99.37920750000002      7.90463675e-005          -11.1802056  0.08065491649999999          -102.127617

!
           290000000         0.0825416991          -109.191991       0.000208808669           31.5125751         0.0370999605           18.4083025      7.52486856e-005          -112.990502
      0.000208808669           31.5125751         0.0564039739          -113.398622       0.000434768394    28.92467739999999         0.0158174528    50.39296589999999
        0.0370999605           18.4083025       0.000434768394    28.92467739999999         0.0742830377          -109.056235 7.961123349999998e-005          -25.5004511
     7.52486856e-005          -112.990502         0.0158174528    50.39296589999999 7.961123349999998e-005          -25.5004511          0.054844501          -108.862312

!
           300000000         0.0606293707          -115.268771       0.000211731494           15.8458152         0.0571823208             19.19523 7.165571660000001e-005           -133.93893
      0.000211731494           15.8458152         0.0338095186          -116.754713       0.000443038818           12.8469198         0.0384594972           41.3398146
        0.0571823208             19.19523       0.000443038818           12.8469198  0.05231192489999999          -113.883415      8.00905938e-005          -39.0979219
7.165571660000001e-005           -133.93893         0.0384594972           41.3398146      8.00905938e-005          -39.0979219         0.0332912035          -108.520486

!
           310000000         0.0437966558          -118.046388       0.000213422788   0.4576072280000001         0.0746258804           11.7099932 6.644192350000001e-005          -154.732529
      0.000213422788   0.4576072280000001         0.0175297383          -105.573022       0.000448441101          -3.03628404         0.0566474111            29.527806
        0.0746258804           11.7099932       0.000448441101          -3.03628404         0.0358125962          -113.545599      8.08940095e-005   -51.94098940000001
6.644192350000001e-005          -154.732529         0.0566474111            29.527806      8.08940095e-005   -51.94098940000001         0.0194948153           -91.227525

!
           320000000         0.0327828253          -118.624323       0.000214293131          -14.6201376         0.0871725176           1.44909752      5.97348951e-005          -175.335368
      0.000214293131          -14.6201376         0.0117199843   -67.64043839999999       0.000451546836          -18.6829185  0.06935428959999999           17.6034461
        0.0871725176           1.44909752       0.000451546836          -18.6829185         0.0257888767          -108.433905 8.246924790000001e-005          -64.1515474
     5.97348951e-005          -175.335368  0.06935428959999999           17.6034461 8.246924790000001e-005          -64.1515474         0.0166545404   -61.01256110000001

!
           330000000          0.026662187          -122.539427       0.000214732053          -29.3988798         0.0938195611          -10.0091034 5.167573530000001e-005           164.265712
      0.000214732053          -29.3988798         0.0127650353          -44.6026487       0.000452930495          -34.0833124         0.0759911435           6.06617396
        0.0938195611          -10.0091034       0.000452930495          -34.0833124         0.0207806074          -106.497607      8.51988207e-005          -75.9995825
5.167573530000001e-005           164.265712         0.0759911435           6.06617396      8.51988207e-005          -75.9995825         0.0179950713           -49.290328

!
           340000000         0.0237476394          -137.803664        0.00021504144          -43.9210146         0.0941086928          -22.0844381      4.23936288e-005           144.085884
       0.00021504144          -43.9210146         0.0108786216          -41.2664097       0.000453052863          -49.2491304  0.07636233349999999   -4.699849580000001
        0.0941086928          -22.0844381       0.000453052863          -49.2491304         0.0176008259          -119.508675 8.931290020000001e-005           -87.840349
     4.23936288e-005           144.085884  0.07636233349999999   -4.699849580000001 8.931290020000001e-005           -87.840349         0.0158131618          -52.5553663

!
           350000000         0.0249109098          -167.491575       0.000215402941           -58.244201  0.08795725660000001          -34.5197929      3.20055072e-005           124.208978
      0.000215402941           -58.244201 0.003391092870000001          -26.9148142       0.000452210821          -64.1997858         0.0706965581          -14.0471991
 0.08795725660000001          -34.5197929       0.000452210821          -64.1997858         0.0167601304          -156.214156 9.484171110000001e-005          -100.018119
     3.20055072e-005           124.208978         0.0706965581          -14.0471991 9.484171110000001e-005          -100.018119        0.00792126105   -67.28475990000001

!
           360000000         0.0335677528           159.166539        0.00021587529   -72.42502190000002  0.07562479879999999          -47.1558897 2.063921520000001e-005           105.041967
       0.00021587529   -72.42502190000002         0.0111226294           106.150056 0.0004505510640000001          -78.9493794         0.0598331096          -20.5172351
 0.07562479879999999          -47.1558897 0.0004505510640000001          -78.9493794          0.024332742           159.350901       0.000101613119          -112.782299
2.063921520000001e-005           105.041967         0.0598331096          -20.5172351       0.000101613119          -112.782299        0.00669804916           133.119272

!
           370000000         0.0502994449           132.934295       0.000216418358          -86.5040248          0.057739357          -59.7951933 8.490697419999999e-006            89.689145
      0.000216418358          -86.5040248         0.0306534281           100.693485 0.0004481370919999999          -93.4967613         0.0458813596          -20.3462145
         0.057739357          -59.7951933 0.0004481370919999999          -93.4967613         0.0412066546           129.989111        0.00010928636          -126.247946
8.490697419999999e-006            89.689145         0.0458813596          -20.3462145        0.00010928636          -126.247946         0.0262075901            109.40934

!
           380000000         0.0731460513           112.727723       0.000216942552          -100.494977         0.0353344207          -71.8896087      4.58804814e-006          -135.363136
      0.000216942552          -100.494977         0.0548466959           90.2521388       0.000445052542          -107.821371  0.03457385920000001          -4.86161494
        0.0353344207          -71.8896087       0.000445052542          -107.821371  0.06429683629999999           109.752364       0.000117410854          -140.400343
     4.58804814e-006          -135.363136  0.03457385920000001          -4.86161494       0.000117410854          -140.400343         0.0504824611    95.33401430000001

!
           390000000         0.0999916137    95.64793710000001       0.000217377308          -114.382162         0.0099022096          -77.8348565      1.75679031e-005          -143.792705
      0.000217377308          -114.382162         0.0821941466    78.50376660000001       0.000441511603          -121.887277         0.0372717749    23.34034760000001