! Tyco Electronics Strada Whisper System
! NEXT_F89_G1112
!! 
!! SYSTEM DESCRIPTION: Daughtercard-Footprint-Connector-Footprint-Daughtercard
!! PCB DESCRIPTION: DC: 140mil, Megtron7N, upper layer route, 15mil stub, 6-6-6mil 12" traces
!! CONNECTOR DESCRIPTION: Next-Gen STRADA Whisper Direct-Plug Orthogonal Connector
!! MODEL DESCRIPTION: Tyco Electronics System 4-port S-parameter 
!! MODEL STATUS: Developmental
!! MODEL GEOMETRY: Channel Model
!! MODEL FREQUENCY RANGE: DC to 60 GHz in 10 MHz frequency steps
!! MODEL EDGE RATE LIMITATION: 8.3 ps (Using conservative 0.5/Fmax rule of thumb)
!! 
!! TIME-DOMAIN TRANSFORM CAUTIONS: 
!! 1.) Do not simulate transient edge rates faster than the number listed above.  Edge rates faster than this number 
!!     contain significant spectral content at frequencies above the model's highest frequency. 
!! 2.) Even when simulating edge rates that are slower than the number listed above, be aware that the best time 
!!     resolution possible with a direct iFFT is (1 / 2Fmax).  As a result, time resolution is typically not adequate 
!!     for most time-domain simulations unless tricks such as windowing are used to minimize leakage and aliasing. 
!! 3.) Because the model has a uniform frequency step, a direct iFFT will result in an impulse that that has a time 
!!     length given by either (1 / Fstep) or (1 / 2Fstep), depending on the transform being used.  Care has been taken 
!!     in selecting the frequency step to ensure a settled impulse response for the model.  Therefore, convolution with 
!!     the model's impulse response should present no issues.  However, if directly concatenating s-parameter models 
!!     in the frequency domain a user must either interpolate necessary interim frequencies or complete impulse response 
!!     zero-padding.  Impulse response zero-padding is more difficult, but more accurate. 
!! 
!! PORT DEFINITIONS: 
!! Port   1  ----->  RX Side	F8     G11     RX Side  <-----  Port   3
!! Port   2  ----->  RX Side	F9     G12     RX Side  <-----  Port   4
!! 
!!!!!!!!!!!!!!!!!!!!!!!!!!!!!!!!!!!!!!!!!!!!!!!!!!!!!!!!!!!!!!!!!!!!!!!!!!!!!!!!!!!!!!!!!!!!!!!!!!!!!!!!!!!!!!!!!!!!!!!!
! Touchstone data
! Created: 10-Dec-2018 by IdEM R2012 (8.0.5)
# Hz S MA R 50

!
                   0         0.0517071932                    0       1.0188171e-006                    0        0.00172075336                    0      5.90255346e-007                    0
      1.0188171e-006                    0          0.048545651                    0      1.85445147e-006                    0        0.00138640922                    0
       0.00172075336                    0      1.85445147e-006                    0         0.0519584674                    0      1.17841707e-006                    0
     5.90255346e-007                    0        0.00138640922                    0      1.17841707e-006                    0         0.0487268649                    0

!
            10000000         0.0618435976           15.5962995      3.90281523e-006           58.1545458         0.0334878427           70.9580982      3.22708894e-006           -96.670947
     3.90281523e-006           58.1545458          0.059618823           18.0678863      3.81211916e-005           71.8654128         0.0331820875           71.8291011
        0.0334878427           70.9580982      3.81211916e-005           71.8654128         0.0622506146           15.7555774      9.60183536e-006    69.57997330000001
     3.22708894e-006           -96.670947         0.0331820875           71.8291011      9.60183536e-006    69.57997330000001          0.059995474           18.2879967

!
            20000000         0.0806461612            17.719689      7.57331177e-006           49.2016453  0.06392024139999999           56.4674859 6.265046579999999e-006          -118.857868
     7.57331177e-006           49.2016453  0.08002499939999999    20.71346880000001      7.65098699e-005           57.9144757  0.06348715269999999           57.4021292
 0.06392024139999999           56.4674859      7.65098699e-005           57.9144757          0.081368618           17.9017524      1.97065055e-005           59.4310905
6.265046579999999e-006          -118.857868  0.06348715269999999           57.4021292      1.97065055e-005           59.4310905         0.0807760602           20.9525475

!
            30000000  0.09836398120000001            11.530912       1.1332523e-005            36.020406         0.0890190199           41.2275052      9.12801263e-006           -137.47897
      1.1332523e-005            36.020406  0.09945732609999999           14.6514779        0.00011577066           42.9873964         0.0887408061           42.4095747
        0.0890190199           41.2275052        0.00011577066           42.9873964          0.099435787           11.7003829      3.10036609e-005           46.2462673
     9.12801263e-006           -137.47897         0.0887408061           42.4095747      3.10036609e-005           46.2462673          0.100610953           14.8689881

!
            40000000          0.110209068           1.46026208      1.53704058e-005           22.0779916          0.107043774           25.9606027       1.1709357e-005          -155.053875
     1.53704058e-005           22.0779916           0.11325698           4.76825943       0.000156512903            27.699328          0.107306494           27.4445461
         0.107043774           25.9606027       0.000156512903            27.699328          0.111637966           1.61755583      4.39592259e-005           31.5862555
      1.1709357e-005          -155.053875          0.107306494           27.4445461      4.39592259e-005           31.5862555          0.114818903    4.967618820000001

!
            50000000          0.113942632          -10.5691985      2.00277388e-005    7.609948890000002           0.11686583           10.7610949       1.3886964e-005          -171.980837
     2.00277388e-005    7.609948890000002          0.119316953          -6.94775569        0.00019937418           12.0745095          0.118130064           12.5783262
          0.11686583           10.7610949        0.00019937418           12.0745095          0.115734872           -10.418438      5.89628691e-005           15.6715743
      1.3886964e-005          -171.980837          0.118130064           12.5783262      5.89628691e-005           15.6715743           0.12129466   -6.759613950000001

!
            60000000          0.108510743          -23.7936381       2.5673446e-005          -7.87709261          0.117824763   -4.390537929999999        1.551515e-005           171.917055
      2.5673446e-005          -7.87709261          0.116655961          -19.7028446       0.000244830428   -3.975946969999999          0.120598567          -2.22139675
         0.117824763   -4.390537929999999       0.000244830428   -3.975946969999999          0.110675289          -23.6427141 7.626834110000001e-005          -1.47115443
       1.551515e-005           171.917055          0.120598567          -2.22139675 7.626834110000001e-005          -1.47115443          0.119061516          -19.5207427

!
            70000000  0.09352812369999999   -37.97829360000001      3.25456294e-005          -24.9549266           0.10965099          -19.4987217      1.64861934e-005           157.347599
     3.25456294e-005          -24.9549266          0.104899271   -33.18843619999999 0.0002929179029999999          -20.5627914          0.114441895          -16.9880067
          0.10965099          -19.4987217 0.0002929179029999999          -20.5627914  0.09607494819999998          -37.8162553 9.588717810000001e-005          -19.8471302
     1.64861934e-005           157.347599          0.114441895          -16.9880067 9.588717810000001e-005          -19.8471302           0.10774694          -33.0090403

!
            80000000         0.0691777229          -53.2643417      4.05916593e-005          -43.9384087         0.0925462693          -34.4189061      1.69184096e-005           145.631217
     4.05916593e-005          -43.9384087         0.0841419264          -47.3019366       0.000342898959          -37.7670755         0.0997661004          -31.6617487
        0.0925462693          -34.4189061       0.000342898959          -37.7670755         0.0721127493          -53.0570818       0.000117427309          -39.4336896
     1.69184096e-005           145.631217         0.0997661004          -31.6617487       0.000117427309          -39.4336896         0.0874430007          -47.1230329

!
            90000000  0.03639273580000001   -71.02512400000001      4.93588981e-005          -64.7812857         0.0674263965          -48.5038203      1.74827473e-005           138.068834
     4.93588981e-005          -64.7812857         0.0550484009          -62.0498537 0.0003930011990000001           -55.592609          0.077232804          -45.8892845
        0.0674263965          -48.5038203 0.0003930011990000001           -55.592609         0.0397064123           -70.517754       0.000139934687   -60.13081840000001
     1.74827473e-005           138.068834          0.077232804          -45.8892845       0.000139934687   -60.13081840000001  0.05880446799999999          -61.8661329

!
           100000000        0.00491024828           146.586007      5.80000272e-005          -87.1125625         0.0363119753   -58.48280460000001      1.94761785e-005           133.360828
     5.80000272e-005          -87.1125625         0.0190635021          -78.0218805       0.000440484733   -73.92733670000001         0.0483372347          -58.1544505
        0.0363119753   -58.48280460000001       0.000440484733   -73.92733670000001        0.00371802838          -164.999884       0.000161873719          -81.7201962
     1.94761785e-005           133.360828         0.0483372347          -58.1544505       0.000161873719          -81.7201962         0.0232599016   -77.68711800000001

!
           110000000         0.0468439545    87.84198979999999      6.54617994e-005          -110.323074 0.008516899790000001          0.920814531      2.38303349e-005           126.587821
     6.54617994e-005          -110.323074          0.021494234    89.42586110000001       0.000482276623   -92.53501640000002         0.0163204042          -54.4951933
0.008516899790000001          0.920814531       0.000482276623   -92.53501640000002         0.0428367001            88.530507       0.000181397504          -103.855127
     2.38303349e-005           126.587821         0.0163204042          -54.4951933       0.000181397504          -103.855127         0.0168935949    90.19632919999999

!
           120000000         0.0905381191           69.8831728      7.08406914e-005          -133.675474         0.0364441724            61.916855      3.00618356e-005           114.746793
     7.08406914e-005          -133.675474         0.0635398585           73.1241823       0.000516061962          -111.096305         0.0219931287           59.5425841
        0.0364441724            61.916855       0.000516061962          -111.096305         0.0862218521    70.21897840000001       0.000196899057          -126.101799
     3.00618356e-005           114.746793         0.0219931287           59.5425841       0.000196899057          -126.101799         0.0585767267           73.4464995

!
           130000000          0.131229101    53.49679210000001      7.37313125e-005           -156.43034         0.0686865661           52.4926664      3.68789977e-005    98.84684830000001
     7.37313125e-005           -156.43034          0.103835927           57.5822281       0.000541225527          -129.291319         0.0542521833           56.6438366
        0.0686865661           52.4926664       0.000541225527          -129.291319           0.12665568           53.7644824       0.000207561016          -148.024193
     3.68789977e-005    98.84684830000001         0.0542521833           56.6438366       0.000207561016          -148.024193          0.098565955    57.86973149999999

!
           140000000          0.166145268           37.7739945      7.43535832e-005          -177.960965         0.0960004184    39.20803939999999       4.3163977e-005           80.9323615
     7.43535832e-005          -177.960965          0.139539839           42.3659101       0.000559007994          -146.884298         0.0829936919           44.3646605
        0.0960004184    39.20803939999999       0.000559007994          -146.884298            0.1613484           38.0242181       0.000213547178          -169.272403
      4.3163977e-005           80.9323615         0.0829936919           44.3646605       0.000213547178          -169.272403          0.134010597           42.6527281

!
           150000000          0.193527627           22.5459332 7.341692930000001e-005           162.171041          0.116656794           25.3304412 4.834523860000001e-005           62.5330296
7.341692930000001e-005           162.171041          0.168627945    27.49013940000001       0.000571854156           -163.76936          0.105879826    30.83150510000001
         0.116656794           25.3304412       0.000571854156           -163.76936          0.188523973    22.79840340000001       0.000215757976           170.367998
4.834523860000001e-005           62.5330296          0.105879826    30.83150510000001       0.000215757976           170.367998          0.162871911           27.7891804

!
           160000000          0.212509747           7.70915873      7.18677558e-005            144.17359          0.129928594           11.4696768       5.2371637e-005    44.53932640000001
     7.18677558e-005            144.17359          0.189940403           12.9412476       0.000582497625          -179.966508           0.12186675           17.1427247
         0.129928594           11.4696768       0.000582497625          -179.966508          0.207298799    7.977067309999998       0.000215391307           150.977402
      5.2371637e-005    44.53932640000001           0.12186675           17.1427247       0.000215391307           150.977402          0.183971276           13.2625754

!
           170000000          0.222821434          -6.85403215      7.06703501e-005           127.983629          0.135613866          -2.26317898      5.55386771e-005           27.3658957
     7.06703501e-005           127.983629          0.202978859          -1.34486389 0.0005932916450000002           164.413737           0.13053797           3.53817373
         0.135613866          -2.26317898 0.0005932916450000002           164.413737          0.217388862   -6.557521600000001       0.000213583922           132.536282
     5.55386771e-005           27.3658957           0.13053797           3.53817373       0.000213583922           132.536282          0.196792832  -0.9897501510000002

!
           180000000          0.224514117          -21.2715456       7.0652265e-005           113.223304          0.133742695          -15.8951199 5.829977220000001e-005           11.0883838
      7.0652265e-005           113.223304          0.207647526          -15.4638721       0.000605918976           149.212729          0.131801771   -9.962562980000001
         0.133742695          -15.8951199       0.000605918976           149.212729          0.218837667          -20.9298404       0.000211237595           114.967259
5.829977220000001e-005           11.0883838          0.131801771   -9.962562980000001       0.000211237595           114.967259          0.201228099          -15.0593928

!
           190000000          0.217820469          -35.6594791      7.23716242e-005    99.22105900000001          0.124459209          -29.4553346      6.11099374e-005          -4.46596032
     7.23716242e-005    99.22105900000001          0.204075908          -29.5158429 0.0006213572180000001           134.259307          0.125725172          -23.3852355
         0.124459209          -29.4553346 0.0006213572180000001           134.259307          0.211877554           -35.248877        0.00020899305    98.17050780000001
     6.11099374e-005          -4.46596032          0.125725172          -23.3852355        0.00020899305    98.17050780000001          0.197400934          -29.0389728

!
           200000000           0.20317616          -50.0944575 7.599978070000001e-005           85.1851222           0.10808576          -42.8608884      6.43015131e-005          -19.6337074
7.599978070000001e-005           85.1851222          0.192579311          -43.5751526       0.000639949368           119.396221           0.11252707          -36.6950407
          0.10808576          -42.8608884       0.000639949368           119.396221          0.196952776   -49.57827950000001       0.000207282253    82.04904759999999
     6.43015131e-005          -19.6337074           0.11252707          -36.6950407       0.000207282253    82.04904759999999          0.185629626          -42.9895642

!
           210000000           0.18137956   -64.58198280000001      8.12819013e-005           70.4822325         0.0853370668          -55.7014816      6.79909291e-005          -34.8027161
     8.12819013e-005           70.4822325          0.173756052          -57.6559595       0.000661514149           104.499588         0.0927180177          -49.6468046
        0.0853370668          -55.7014816       0.000661514149           104.499588          0.174880103          -63.8994024       0.000206416758    66.52457269999999
     6.79909291e-005          -34.8027161         0.0927180177          -49.6468046       0.000206416758    66.52457269999999          0.166525515          -56.9002986

!
           220000000          0.153812606   -79.02156530000001 8.762898760000001e-005           54.8347916         0.0576444108          -66.4645364      7.20382636e-005          -50.2804861
8.762898760000001e-005           54.8347916          0.148674107          -71.6684925       0.000685511644           89.4916947         0.0673492193          -61.3531993
        0.0576444108          -66.4645364       0.000685511644           89.4916947          0.147070059           -78.063873       0.000206697503           51.5415685
     7.20382636e-005          -50.2804861         0.0673492193          -61.3531993       0.000206697503           51.5415685          0.141181332          -70.6301216

!
           230000000          0.122584517   -93.16763880000001 9.432164989999999e-005           38.3272265         0.0279715752          -66.9713726      7.60892876e-005          -66.1934639
9.432164989999999e-005           38.3272265           0.11904643   -85.35226470000001        0.00071129369           74.3432406         0.0384467903          -67.9519925
        0.0279715752          -66.9713726        0.00071129369           74.3432406          0.115671715          -91.7220502       0.000208530191           37.0528706
     7.60892876e-005          -66.1934639         0.0384467903          -67.9519925       0.000208530191           37.0528706          0.111350855          -83.8000539

!
           240000000  0.09044620719999999          -106.569686       0.000100757364           21.2787923         0.0150844066    8.834385340000001 7.970155309999999e-005          -82.4618014
      0.000100757364           21.2787923         0.0872616898   -98.12703930000001       0.000738398783             59.06047         0.0134450349          -32.0959283
        0.0150844066    8.834385340000001       0.000738398783             59.06047         0.0834958261          -104.167698        0.00021250215           22.9833215
7.970155309999999e-005          -82.4618014         0.0134450349          -32.0959283        0.00021250215           22.9833215          0.079498917   -95.50452780000001

!
           250000000         0.0604313984          -118.422978       0.000106659356           4.08278557         0.0395209669    34.61834420000001      8.25070731e-005          -98.8480809
      0.000106659356           4.08278557  0.05620582100000001          -108.576709       0.000766759223             43.65931         0.0293648628           36.9757058
        0.0395209669    34.61834420000001       0.000766759223             43.65931         0.0536976915          -113.856991       0.000219361988    9.185845799999999
     8.25070731e-005          -98.8480809         0.0293648628           36.9757058       0.000219361988    9.185845799999999         0.0487244063          -103.165416

!
           260000000         0.0353661849          -127.131535       0.000112173828          -12.9331232         0.0637166416           26.9052359 8.433930309999999e-005          -115.039207
      0.000112173828          -12.9331232         0.0291112784          -111.765392 0.0007966896250000001             28.13773         0.0557003641           34.3236186
        0.0637166416           26.9052359 0.0007966896250000001             28.13773         0.0294675325          -116.596477       0.000229888507          -4.57816791
8.433930309999999e-005          -115.039207         0.0557003641           34.3236186       0.000229888507          -4.57816791         0.0233567038   -95.77886909999999

!
           270000000         0.0174318676          -129.359649       0.000117825213   -29.60835430000001         0.0816711541           14.6526355      8.52850438e-005          -130.717829
      0.000117825213   -29.60835430000001         0.0117221703          -79.5415946 0.0008286443300000001           12.4593122         0.0775520893           23.2752955
        0.0816711541           14.6526355 0.0008286443300000001           12.4593122         0.0143224374          -100.021813       0.000244711165          -18.6126059
     8.52850438e-005          -130.717829         0.0775520893           23.2752955       0.000244711165          -18.6126059         0.0154328816          -41.4245581

!
           280000000        0.00736873713          -124.051772       0.000124348679           -46.005809  0.09169071870000001           1.24409323      8.56855103e-005          -145.610067
      0.000124348679           -46.005809         0.0149988518          -23.7079679 0.0008628438739999999          -3.44639842  0.09261893559999999           10.3746024
 0.09169071870000001           1.24409323 0.0008628438739999999          -3.44639842         0.0101260934   -66.17097390000001       0.000264157411          -33.2287988
     8.56855103e-005          -145.610067  0.09261893559999999           10.3746024       0.000264157411          -33.2287988         0.0245965261   -17.61046380000001

!
           290000000        0.00349423815          -172.660313       0.000132434563          -62.4080948  0.09303456680000001          -12.3892727      8.61348532e-005          -159.539299
      0.000132434563          -62.4080948         0.0200582469           -18.105235       0.000898881997          -19.6692571  0.09982455470000001          -3.05323883
 0.09303456680000001          -12.3892727       0.000898881997          -19.6692571 0.007012336190000001          -58.5309331       0.000288135233          -48.6903784
     8.61348532e-005          -159.539299  0.09982455470000001          -3.05323883       0.000288135233          -48.6903784         0.0301182152          -20.2281475

!
           300000000         0.0124023126           129.550141       0.000142422792   -79.23344539999999  0.08562377540000002          -25.6923199      8.74665535e-005          -172.538211
      0.000142422792   -79.23344539999999  0.01772341360000001           -20.108332 0.0009353899439999999          -36.2943023         0.0987213101          -16.5198034
 0.08562377540000002          -25.6923199 0.0009353899439999999          -36.2943023 0.003255481580000001           141.724824       0.000316005889   -65.17916510000001
     8.74665535e-005          -172.538211         0.0987213101          -16.5198034       0.000316005889   -65.17916510000001         0.0277064426           -27.695661

!
           310000000  0.03082859380000001           114.042454       0.000154021892   -96.88117420000002         0.0700618324          -37.7739989      9.06078627e-005           174.989281
      0.000154021892   -96.88117420000002 0.008715020909999999           1.04741518       0.000969854617          -53.3714444  0.08937515629999999          -29.6298223
        0.0700618324          -37.7739989       0.000969854617          -53.3714444         0.0214368729           116.577382       0.000346435248          -82.7763171
     9.06078627e-005           174.989281  0.08937515629999999          -29.6298223       0.000346435248          -82.7763171         0.0170121691   -31.30314610000001

!
           320000000         0.0567563278           100.536781       0.000166180434          -115.569952         0.0479476463   -45.88107049999999 9.616791580000001e-005           162.241758
      0.000166180434          -115.569952          0.016159267    87.63160120000001        0.00099876825          -70.8836012  0.07243220659999999          -41.6127425
        0.0479476463   -45.88107049999999        0.00099876825          -70.8836012         0.0472619735            102.44539       0.000377312387            -101.4479
9.616791580000001e-005           162.241758  0.07243220659999999          -41.6127425       0.000377312387            -101.4479        0.00671606755           55.9621713

!
           330000000         0.0883667776           86.5074138       0.000177243661          -135.245324         0.0238663109          -35.0312146       0.000103906469           148.355243
      0.000177243661          -135.245324         0.0417728178    90.56259230000001        0.00101830744          -88.7231501  0.04941631570000001          -50.0026917
        0.0238663109          -35.0312146        0.00101830744          -88.7231501  0.07883604880000002    88.05874970000001       0.000405909186          -121.035725
      0.000103906469           148.355243  0.04941631570000001          -50.0026917       0.000405909186          -121.035725         0.0304808065    90.97143680000001

!
           340000000          0.123097349            71.985434       0.000185432828          -155.587257         0.0233439359           32.6656855       0.000112577216           132.907229
      0.000185432828          -155.587257  0.07346661369999999           80.6839567        0.00102552076          -106.691545         0.0243914358          -41.3404442
        0.0233439359           32.6656855        0.00102552076          -106.691545           0.11359218           73.2973488       0.000429409024          -141.266473
      0.000112577216           132.907229         0.0243914358          -41.3404442       0.000429409024          -141.266473          0.062096821           82.1982525

!
           350000000          0.158023064           57.2284688       0.000189489827           -176.09726         0.0496990006    45.97365210000001       0.000120419703           116.104537
      0.000189489827           -176.09726          0.108129716           67.9505958        0.00101955518            -124.5326         0.0215648164           28.8756695
        0.0496990006    45.97365210000001        0.00101955518            -124.5326           0.14859703    58.37884799999999        0.00044569076          -161.791198
      0.000120419703           116.104537         0.0215648164           28.8756695        0.00044569076          -161.791198         0.0967887383           69.4372448

!
           360000000          0.190383539    42.46774929999999       0.000189158995           163.777707         0.0770495209           38.8486027       0.000125964722           98.5760325
      0.000189158995           163.777707           0.14288215    54.21865139999999        0.00100218003          -141.992857         0.0474943041           44.5560352
        0.0770495209           38.8486027        0.00100218003          -141.992857           0.18107155    43.51147140000001 0.0004539731049999999            177.74944
      0.000125964722           98.5760325         0.0474943041           44.5560352 0.0004539731049999999            177.74944          0.131640579    55.58577269999999

!
           370000000          0.218007244           27.8568976       0.000185240388           144.527765          0.100512744           27.7722095       0.000128612874           81.0622601
      0.000185240388           144.527765          0.175086849           40.1587544 0.0009772243790000001          -158.884186         0.0745552733           37.7989308
         0.100512744           27.7722095 0.0009772243790000001          -158.884186           0.20881842           28.8353035       0.000454931319            157.65785
      0.000128612874           81.0622601         0.0745552733           37.7989308       0.000454931319            157.65785           0.16399667           41.4265846

!
           380000000           0.23946509           13.4613827       0.000179245644           126.497289          0.118448881           15.6240541       0.000128735857    64.19835569999999
      0.000179245644           126.497289          0.202676816           26.0827363 0.0009492982399999999          -175.121837  0.09777142259999999           26.9274071
         0.118448881           15.6240541 0.0009492982399999999          -175.121837          0.230382361           14.4084961 0.0004502607509999999           138.136529
      0.000128735857    64.19835569999999  0.09777142259999999           26.9274071 0.0004502607509999999           138.136529          0.191762109           27.2848832

!
           390000000          0.253971305  -0.7309898620000001       0.000172924474           109.839577          0.130158744    3.188707459999999       0.000127409596           48.4013772
      0.000172924474           109.839577          0.224284486           12.1263596        0.00092255647           169.272395           0.11554731           14.9462626