! Tyco Electronics Strada Whisper System
! FEXT_H1415_G1112
!! 
!! SYSTEM DESCRIPTION: Daughtercard-Footprint-Connector-Footprint-Daughtercard
!! PCB DESCRIPTION: DC: 140mil, Megtron7N, upper layer route, 15mil stub, 6-6-6mil 12" traces
!! CONNECTOR DESCRIPTION: Next-Gen STRADA Whisper Direct-Plug Orthogonal Connector
!! MODEL DESCRIPTION: Tyco Electronics System 4-port S-parameter 
!! MODEL STATUS: Developmental
!! MODEL GEOMETRY: Channel Model
!! MODEL FREQUENCY RANGE: DC to 60 GHz in 10 MHz frequency steps
!! MODEL EDGE RATE LIMITATION: 8.3 ps (Using conservative 0.5/Fmax rule of thumb)
!! 
!! TIME-DOMAIN TRANSFORM CAUTIONS: 
!! 1.) Do not simulate transient edge rates faster than the number listed above.  Edge rates faster than this number 
!!     contain significant spectral content at frequencies above the model's highest frequency. 
!! 2.) Even when simulating edge rates that are slower than the number listed above, be aware that the best time 
!!     resolution possible with a direct iFFT is (1 / 2Fmax).  As a result, time resolution is typically not adequate 
!!     for most time-domain simulations unless tricks such as windowing are used to minimize leakage and aliasing. 
!! 3.) Because the model has a uniform frequency step, a direct iFFT will result in an impulse that that has a time 
!!     length given by either (1 / Fstep) or (1 / 2Fstep), depending on the transform being used.  Care has been taken 
!!     in selecting the frequency step to ensure a settled impulse response for the model.  Therefore, convolution with 
!!     the model's impulse response should present no issues.  However, if directly concatenating s-parameter models 
!!     in the frequency domain a user must either interpolate necessary interim frequencies or complete impulse response 
!!     zero-padding.  Impulse response zero-padding is more difficult, but more accurate. 
!! 
!! PORT DEFINITIONS: 
!! Port   1  ----->  TX Side	H14     G11     RX Side  <-----  Port   3
!! Port   2  ----->  TX Side	H15     G12     RX Side  <-----  Port   4
!! 
!!!!!!!!!!!!!!!!!!!!!!!!!!!!!!!!!!!!!!!!!!!!!!!!!!!!!!!!!!!!!!!!!!!!!!!!!!!!!!!!!!!!!!!!!!!!!!!!!!!!!!!!!!!!!!!!!!!!!!!!
! Touchstone data
! Created: 10-Dec-2018 by IdEM R2012 (8.0.5)
# Hz S MA R 50

!
                   0         0.0514105367                    0      9.54315927e-007                  180        0.00190984166                    0      1.29014604e-006                  180
     9.54315927e-007                  180         0.0534270299                    0      6.69054565e-007                  180        0.00218974496                    0
       0.00190984166                    0      6.69054565e-007                  180         0.0515213991                    0      1.20191643e-006                  180
     1.29014604e-006                  180        0.00218974496                    0      1.20191643e-006                  180         0.0538601199                    0

!
            10000000         0.0616659692           15.8109953      8.51875011e-006    77.79459439999999         0.0336020913           70.6216743      2.95764311e-006          -143.131355
     8.51875011e-006    77.79459439999999          0.063835393           15.5323184      1.67615139e-005    73.45034130000001         0.0328331115           70.0834588
        0.0336020913           70.6216743      1.67615139e-005    73.45034130000001         0.0619295343           16.0101787      1.95924548e-006           114.966826
     2.95764311e-006          -143.131355         0.0328331115           70.0834588      1.95924548e-006           114.966826         0.0642694705            15.422357

!
            20000000  0.08067217090000001            17.924155      1.66858893e-005           56.2771421         0.0641311468    56.25374269999999      5.27369439e-006          -158.825417
     1.66858893e-005           56.2771421         0.0832851151           17.6475037      3.29088964e-005           53.7537681  0.06255794470000001    56.01540789999999
        0.0641311468    56.25374269999999      3.29088964e-005           53.7537681         0.0812306255           18.1561476      3.46379158e-006    83.90871970000001
     5.27369439e-006          -158.825417  0.06255794470000001    56.01540789999999      3.46379158e-006    83.90871970000001  0.08375766959999999           17.5260962

!
            30000000  0.09858315690000001           11.6660592      2.44304275e-005           37.2696498         0.0893260471           41.0298026      7.32467824e-006           177.621206
     2.44304275e-005           37.2696498          0.101787278           11.4450102 4.812310650000001e-005           35.2028805         0.0869364357           40.9199988
        0.0893260471           41.0298026 4.812310650000001e-005           35.2028805          0.099453024           11.8929564      5.36463043e-006           61.7118526
     7.32467824e-006           177.621206         0.0869364357           40.9199988      5.36463043e-006           61.7118526          0.102337645            11.331929

!
            40000000          0.110608682           1.51623805       3.1686147e-005           19.2642656          0.107443884    25.74520740000001      8.94901525e-006           151.467598
      3.1686147e-005           19.2642656          0.114440514           1.34588438 6.226319880000001e-005            17.311237          0.104210947           25.7386124
         0.107443884    25.74520740000001 6.226319880000001e-005            17.311237          0.111784604           1.74466565 7.677047789999999e-006    41.46656729999999
     8.94901525e-006           151.467598          0.104210947           25.7386124 7.677047789999999e-006    41.46656729999999          0.115093839           1.23596225

!
            50000000          0.114517721          -10.6050831      3.85011606e-005           1.93650704          0.117356173           10.5038189      1.00884086e-005           123.521734
     3.85011606e-005           1.93650704          0.118955157          -10.7251204 7.537955830000001e-005        -0.0205696583          0.113243297           10.6162927
         0.117356173           10.5038189 7.537955830000001e-005        -0.0205696583          0.115994598          -10.3589102         1.04466e-005           21.3587973
     1.00884086e-005           123.521734          0.113243297           10.6162927         1.04466e-005           21.3587973          0.119729238          -10.8417805

!
            60000000           0.10926228          -23.9528163      4.49876194e-005          -14.8922088          0.118402586           -4.7192812      1.07502067e-005            93.553155
     4.49876194e-005          -14.8922088          0.114251087          -23.9985946 8.764563209999999e-005           -16.867805          0.113367992          -4.43663888
         0.118402586           -4.7192812 8.764563209999999e-005           -16.867805          0.111038271          -23.6639602      1.37033492e-005   0.8123686590000001
     1.07502067e-005            93.553155          0.113367992          -4.43663888      1.37033492e-005   0.8123686590000001          0.115160612          -24.1357882

!
            70000000         0.0944619345          -38.3341192      5.12698787e-005          -31.3802402          0.110311508   -19.94763560000001      1.10232122e-005           60.8531444
     5.12698787e-005          -31.3802402  0.09993218629999999           -38.223719      9.92845381e-005          -33.3139674          0.104319359           -19.381436
         0.110311508   -19.94763560000001      9.92845381e-005          -33.3139674         0.0965362708           -37.954932      1.74445798e-005          -20.3645887
     1.10232122e-005           60.8531444          0.104319359           -19.381436      1.74445798e-005          -20.3645887          0.100989842          -38.4044682

!
            80000000         0.0703083426   -54.01038820000001      5.74381773e-005          -47.6714516         0.0932772127          -35.0861321      1.11296862e-005           24.5395152
     5.74381773e-005          -47.6714516          0.076187781   -53.48042600000001       0.000110513577          -49.4427645         0.0863244401          -33.9655079
        0.0932772127          -35.0861321       0.000110513577          -49.4427645         0.0726740919          -53.4136999      2.16135436e-005          -42.2092886
     1.11296862e-005           24.5395152         0.0863244401          -33.9655079      2.16135436e-005          -42.2092886  0.07740430550000001           -53.753429

!
            90000000         0.0377809327   -72.92067350000001       6.3518372e-005   -63.87174170000001         0.0681926871          -49.6411717      1.14826553e-005          -15.6780416
      6.3518372e-005   -63.87174170000001         0.0439695129          -70.6698873       0.000121517315          -65.3244406  0.06037872119999999          -47.1397169
        0.0681926871          -49.6411717       0.000121517315          -65.3244406         0.0403932733          -71.4798955      2.60781921e-005          -64.6574986
     1.14826553e-005          -15.6780416  0.06037872119999999          -47.1397169      2.60781921e-005          -64.6574986         0.0453582568   -71.17496989999999

!
           100000000         0.0057838143           169.618514      6.94734167e-005   -80.02195810000001         0.0369759715          -61.1156731      1.26162425e-005   -58.17473710000001
     6.94734167e-005   -80.02195810000001        0.00613797399          -118.498622       0.000132454892          -81.0062301         0.0288818096   -52.62556600000001
        0.0369759715          -61.1156731       0.000132454892          -81.0062301        0.00483860337          -158.060182      3.06273364e-005          -87.5465493
     1.26162425e-005   -58.17473710000001         0.0288818096   -52.62556600000001      3.06273364e-005          -87.5465493        0.00771267059          -115.478071

!
           110000000         0.0455744582           90.9112544 7.524935980000001e-005          -96.0890679        0.00684023079          -8.34501758       1.4882469e-005   -99.58070220000002
7.524935980000001e-005          -96.0890679  0.03794770630000001    88.35610200000001       0.000143499369   -96.51416190000001         0.0134650326            41.886731
       0.00684023079          -8.34501758       0.000143499369   -96.51416190000001         0.0422191631           90.4108202      3.50033334e-005          -110.623102
      1.4882469e-005   -99.58070220000002         0.0134650326            41.886731      3.50033334e-005          -110.623102         0.0364166678           89.7547335

!
           120000000         0.0890715334    71.75802210000001 8.085224210000001e-005          -111.992708         0.0349008957           64.7773376      1.82287992e-005          -137.458104
8.085224210000001e-005          -111.992708  0.08075109010000001           69.5338465        0.00015488664          -111.869534  0.04615164129999999           61.6090585
        0.0349008957           64.7773376        0.00015488664          -111.869534  0.08548833689999999           71.3417791      3.89705564e-005          -133.581368
     1.82287992e-005          -137.458104  0.04615164129999999           61.6090585      3.89705564e-005          -133.581368  0.07906924849999999           70.2114326

!
           130000000          0.129652746           55.0156771 8.640827210000001e-005          -127.661399         0.0672674592           54.3608945       2.2352526e-005          -171.475593
8.640827210000001e-005          -127.661399          0.120422265           52.9931756       0.000166935144          -127.112413         0.0788152122           50.9873123
        0.0672674592           54.3608945       0.000166935144          -127.112413          0.125849162           54.6724701      4.23864821e-005          -156.127306
      2.2352526e-005          -171.475593         0.0788152122           50.9873123      4.23864821e-005          -156.127306          0.118644155           53.4942747

!
           140000000          0.164499114           39.1617235      9.21629889e-005          -143.087343          0.094614737           40.7470483      2.69441401e-005           157.678939
     9.21629889e-005          -143.087343           0.15420044           37.2501736       0.000180015277           -142.31642           0.10636303           37.4715731
         0.094614737           40.7470483       0.000180015277           -142.31642          0.160482886           38.8565903      4.52330225e-005          -178.040135
     2.69441401e-005           157.678939           0.10636303           37.4715731      4.52330225e-005          -178.040135          0.152351273           37.6843026

!
           150000000          0.191839343           23.9069451 9.842167190000001e-005          -158.349415          0.115289868            26.760956      3.17883381e-005           129.197729
9.842167190000001e-005          -158.349415           0.18037201           22.0618954       0.000194487237           -157.58613          0.127133748           23.4329086
         0.115289868            26.760956       0.000194487237           -157.58613           0.18760777           23.6198701      4.75958842e-005           160.795698
     3.17883381e-005           129.197729          0.127133748           23.4329086      4.75958842e-005           160.795698          0.178466552           22.4724733

!
           160000000          0.210801477           9.11296791       0.000105469221          -173.599061          0.128581522           12.9093525      3.67591654e-005           102.400372
      0.000105469221          -173.599061          0.198114837    7.304240220000001       0.000210639282          -173.042813          0.140425902           9.37325794
         0.128581522           12.9093525       0.000210639282          -173.042813          0.206339221    8.831646169999999 4.961501609999999e-005           140.392337
     3.67591654e-005           102.400372          0.140425902           9.37325794 4.961501609999999e-005           140.392337          0.196160133    7.716690879999998

!
           170000000          0.221113941   -5.345658739999999       0.000113500462           170.975212          0.134295668         -0.720555504      4.17765721e-005           76.7409239
      0.000113500462           170.975212          0.207190499          -7.14705227       0.000228635425           171.191016          0.146049635          -4.63161403
         0.134295668         -0.720555504       0.000228635425           171.191016          0.216394988   -5.629566520000001 5.143489849999999e-005            120.68065
     4.17765721e-005           76.7409239          0.146049635          -4.63161403 5.143489849999999e-005            120.68065          0.205188342   -6.712151780000001

!
           180000000          0.222831408          -19.5903092       0.000122566556           155.187085          0.132473016           -14.145003      4.67571002e-005           51.7798534
      0.000122566556           155.187085          0.207670106          -21.4178974       0.000248458731           155.003931          0.144040271   -18.64199380000001
         0.132473016           -14.145003       0.000248458731           155.003931          0.217823338          -19.8828078      5.31670936e-005           101.538894
     4.67571002e-005           51.7798534          0.144040271   -18.64199380000001      5.31670936e-005           101.538894          0.205620246          -20.9388005

!
           190000000            0.2161959   -33.71767930000001       0.000132531758           138.886489          0.123277135          -27.3489228      5.15706793e-005            27.165629
      0.000132531758           138.886489          0.199801531          -35.6121286       0.000269838132           138.307215           0.13454847            -32.74473
         0.123277135          -27.3489228       0.000269838132           138.307215          0.210865541   -34.02284350000001      5.48636216e-005    82.82370710000001
     5.15706793e-005            27.165629           0.13454847            -32.74473      5.48636216e-005    82.82370710000001          0.197705607          -35.0609566

!
           200000000          0.201661154   -47.76754520000001       0.000143043328    121.9870070000001           0.10706872          -40.1441967      5.60088298e-005           2.62875831
      0.000143043328    121.9870070000001          0.184043122          -49.7767995       0.000292170878           121.049428          0.117907201          -46.9824641
          0.10706872          -40.1441967       0.000292170878           121.049428          0.195981103   -48.08659920000001      5.64989675e-005    64.40691940000001
     5.60088298e-005           2.62875831          0.117907201          -46.9824641      5.64989675e-005    64.40691940000001          0.181909502          -49.1126858

!
           210000000          0.180056778          -61.6793136       0.000153536435           104.486593         0.0846489087          -51.8589603      5.97719294e-005   -22.01531380000001
      0.000153536435           104.486593          0.161237561   -63.85383869999999       0.000314488069           103.234041  0.09483051000000002   -61.26932080000001
        0.0846489087          -51.8589603       0.000314488069           103.234041          0.174012103   -62.00699590000001      5.79681447e-005           46.2213393
     5.97719294e-005   -22.01531380000001  0.09483051000000002   -61.26932080000001      5.79681447e-005           46.2213393          0.159087746   -63.01025179999999

!
           220000000          0.152817273          -75.2316692       0.000163308266    86.47774939999999  0.05770440599999999          -60.1943304      6.24879262e-005          -46.8604525
      0.000163308266    86.47774939999999          0.132846343   -77.60409799999999       0.000335535551           84.9341616         0.0666524833   -75.18211270000001
 0.05770440599999999          -60.1943304       0.000335535551           84.9341616          0.146411373   -75.54516940000001      5.91190802e-005           28.3083302
     6.24879262e-005          -46.8604525         0.0666524833   -75.18211270000001      5.91190802e-005           28.3083302          0.130724947   -76.46113630000001

!
           230000000          0.122142473          -87.9479113       0.000171677323           68.1388446         0.0303936255          -54.2752926       6.3771456e-005          -71.9111532
      0.000171677323           68.1388446          0.101108317          -90.4526585       0.000354016594           66.2935102         0.0354975254   -86.77931240000001
        0.0303936255          -54.2752926       0.000354016594           66.2935102            0.1154025   -88.17254509999999       5.9834199e-005           10.8436951
      6.3771456e-005          -71.9111532         0.0354975254   -86.77931240000001       5.9834199e-005           10.8436951         0.0991038673           -88.767118

!
           240000000         0.0909502138   -98.91284140000001       0.000178184881           49.7004335         0.0223200937           3.15518906      6.33117434e-005          -97.1024146
      0.000178184881           49.7004335         0.0690016737          -101.037792       0.000368941032    47.50490900000001        0.00605847482          -54.1432277
        0.0223200937           3.15518906       0.000368941032    47.50490900000001         0.0839416606          -98.8064703      6.01453095e-005          -5.89133053
     6.33117434e-005          -97.1024146        0.00605847482          -54.1432277      6.01453095e-005          -5.89133053  0.06730668870000001   -98.23624690000001

!
           250000000         0.0626051401          -106.380127       0.000182737578           31.3925674         0.0440521194           25.5228819 6.094890930000001e-005          -122.342925
      0.000182737578           31.3925674         0.0401425212          -105.390957       0.000379909832           28.7691974         0.0265049404    43.25875070000001
        0.0440521194           25.5228819       0.000379909832           28.7691974         0.0555053004          -105.111828 6.032251379999999e-005          -21.6149912
6.094890930000001e-005          -122.342925         0.0265049404    43.25875070000001 6.032251379999999e-005          -21.6149912         0.0392831484   -99.89209070000001

!
           260000000         0.0405633626          -107.288626       0.000185606466            13.392823         0.0671760037            20.036822      5.66931159e-005          -147.573101
      0.000185606466            13.392823         0.0198822183          -88.7176151       0.000387166686           10.2513635         0.0507032521           33.4628169
        0.0671760037            20.036822       0.000387166686           10.2513635         0.0339887908          -102.081985      6.08677868e-005   -36.20811379999999
     5.66931159e-005          -147.573101         0.0507032521           33.4628169      6.08677868e-005   -36.20811379999999         0.0215123876          -78.3789195

!
           270000000         0.0275154452          -99.9004826       0.000187291675          -4.20427581           0.08458994    8.696310540000001      5.06774185e-005          -172.823735
      0.000187291675          -4.20427581         0.0171277536           -44.715685       0.000391400976          -7.94662171         0.0681704612           20.3497401
          0.08458994    8.696310540000001       0.000391400976          -7.94662171         0.0231099064          -85.9693967      6.23908778e-005          -49.8617031
     5.06774185e-005          -172.823735         0.0681704612           20.3497401      6.23908778e-005          -49.8617031         0.0213012628           -42.607627

!
           280000000          0.022031165   -94.58168430000001       0.000188339833          -21.3891405         0.0942313444          -4.51724672      4.30825161e-005           161.721491
      0.000188339833          -21.3891405         0.0215671823          -32.0980189 0.0003934411419999999          -25.7878662          0.077563323    6.964583460000001
        0.0942313444          -4.51724672 0.0003934411419999999          -25.7878662         0.0204558199          -74.1856595       6.5415936e-005   -63.09498870000001
     4.30825161e-005           161.721491          0.077563323    6.964583460000001       6.5415936e-005   -63.09498870000001         0.0257772423          -35.2594185

!
           290000000          0.018315524          -108.480876       0.000189196978          -38.2170082  0.09522692889999999          -18.5023914      3.40870688e-005           135.593721
      0.000189196978          -38.2170082         0.0199731909          -35.9702999       0.000393998257          -43.2825444         0.0783387389          -5.84200453
 0.09522692889999999          -18.5023914       0.000393998257          -43.2825444         0.0171931336   -83.25590560000001      7.02114454e-005          -76.5836999
     3.40870688e-005           135.593721         0.0783387389          -5.84200453      7.02114454e-005          -76.5836999         0.0240000072          -41.7635417

!
           300000000         0.0169001478          -155.466162       0.000190128718   -54.77667690000001          0.087400559          -32.8152826      2.38873911e-005            107.50112
      0.000190128718   -54.77667690000001        0.00986529398          -39.7443858       0.000393540602   -60.46048470000001         0.0706804897          -17.1164952
         0.087400559          -32.8152826       0.000393540602   -60.46048470000001         0.0116112435          -130.762722 7.671795790000001e-005           -90.900485
     2.38873911e-005            107.50112         0.0706804897          -17.1164952 7.671795790000001e-005           -90.900485          0.013683013           -54.102779

!
           310000000         0.0285831949           151.762931         0.0001912049   -71.15596770000001         0.0712062378          -47.0874443      1.29173232e-005           71.7315054
        0.0001912049   -71.15596770000001        0.00942468422           102.047897       0.000392306032          -77.3439016         0.0558036142          -24.5155007
        0.0712062378          -47.0874443       0.000392306032          -77.3439016         0.0204182783             151.6219 8.457574760000001e-005          -106.348397
     1.29173232e-005           71.7315054         0.0558036142          -24.5155007 8.457574760000001e-005          -106.348397        0.00526090919           124.805859

!
           320000000         0.0526165874           121.657171       0.000192343653          -87.4099631         0.0478202107   -60.45003800000001      5.42930636e-006          -25.2429302
      0.000192343653          -87.4099631         0.0355151885    97.90109970000002 0.0003904270169999999   -93.92800530000001  0.03749935360000001           -20.095904
        0.0478202107   -60.45003800000001 0.0003904270169999999   -93.92800530000001         0.0446319625           118.822926      9.32068109e-005          -122.948414
     5.42930636e-006          -25.2429302  0.03749935360000001           -20.095904      9.32068109e-005          -122.948414         0.0315245123           103.640052

!
           330000000  0.08374022499999999           100.552317       0.000193412926           -103.54087           0.01939146          -67.1483461       1.4727283e-005          -110.546502
      0.000193412926           -103.54087         0.0672305015           85.0160461       0.000388122475          -110.177097         0.0294963315           14.2133014
          0.01939146          -67.1483461       0.000388122475          -110.177097  0.07588772720000001           98.2230617       0.000101926414           -140.51261
      1.4727283e-005          -110.546502         0.0294963315           14.2133014       0.000101926414           -140.51261  0.06331507679999998            88.279016

!
           340000000           0.11843408    82.46136989999999       0.000194367118          -119.500959         0.0137242809           61.9821187       2.7371918e-005          -144.663586
      0.000194367118          -119.500959          0.101775553    70.77304700000002       0.000385874185           -126.04167  0.04673480469999999            40.331608
        0.0137242809           61.9821187       0.000385874185           -126.04167          0.110620332           80.6270851       0.000110085874          -158.733126
      2.7371918e-005          -144.663586  0.04673480469999999            40.331608       0.000110085874          -158.733126         0.0979416208    73.08096690000001

!
           350000000          0.153512126           65.6935146       0.000195358043          -135.223378         0.0446402268           61.4169066      4.00024392e-005          -171.995956
      0.000195358043          -135.223378          0.136206299           56.1401845       0.000384483509           -141.49295  0.07352899640000001    40.39385799999999
        0.0446402268           61.4169066       0.000384483509           -141.49295          0.145701464           64.1897065       0.000117224842           -177.26428
     4.00024392e-005          -171.995956  0.07352899640000001    40.39385799999999       0.000117224842           -177.26428          0.132474304           57.9683751

!
           360000000          0.186123486    49.73480479999999       0.000196752734          -150.668844         0.0734583227           49.1539477      5.20420725e-005           162.907857
      0.000196752734          -150.668844           0.16783171           41.4984704 0.0003849565910000001          -156.558217         0.0998017259    31.98259920000001
        0.0734583227           49.1539477 0.0003849565910000001          -156.558217          0.178297394    48.44374520000001       0.000123172995           164.206936
     5.20420725e-005           162.907857         0.0998017259    31.98259920000001       0.000123172995           164.206936          0.164220679           43.0576915

!
           370000000          0.214058664           34.4082591       0.000199045985           -165.86379         0.0977755125           35.8940351      6.32613562e-005           139.046202
      0.000199045985           -165.86379          0.194588575           27.0339691       0.000388280579          -171.336306          0.122053441           20.7999801
        0.0977755125           35.8940351       0.000388280579          -171.336306          0.206193497           33.2529613       0.000128052927           145.910593
     6.32613562e-005           139.046202          0.122053441           20.7999801       0.000128052927           145.910593          0.191110012           28.4388455

!
           380000000          0.235872252           19.6186462       0.000202723241           179.088559           0.11636717           22.7040609      7.36308017e-005           116.037445
      0.000202723241           179.088559          0.215147856           12.8130782        0.00039521951           174.014477          0.138704066    8.580011649999999
          0.11636717           22.7040609        0.00039521951           174.014477          0.227930673           18.5472841       0.000132195548           127.970981
     7.36308017e-005           116.037445          0.138704066    8.580011649999999       0.000132195548           127.970981          0.211804733           14.1367447

!
           390000000          0.250774869           5.27410685       0.000208140525           164.024642          0.128665446    9.825235220000002       8.3237782e-005           93.6403048
      0.000208140525           164.024642          0.228788039          -1.18225331       0.000406209774           159.305664          0.149053085          -4.08368626
         0.128665446    9.825235220000002       0.000406209774           159.305664          0.242705336    4.249703660000001       0.000136021857           110.408086