! Tyco Electronics Strada Whisper System
! NEXT_F1112_G1112
!! 
!! SYSTEM DESCRIPTION: Daughtercard-Footprint-Connector-Footprint-Daughtercard
!! PCB DESCRIPTION: DC: 140mil, Megtron7N, upper layer route, 15mil stub, 6-6-6mil 12" traces
!! CONNECTOR DESCRIPTION: Next-Gen STRADA Whisper Direct-Plug Orthogonal Connector
!! MODEL DESCRIPTION: Tyco Electronics System 4-port S-parameter 
!! MODEL STATUS: Developmental
!! MODEL GEOMETRY: Channel Model
!! MODEL FREQUENCY RANGE: DC to 60 GHz in 10 MHz frequency steps
!! MODEL EDGE RATE LIMITATION: 8.3 ps (Using conservative 0.5/Fmax rule of thumb)
!! 
!! TIME-DOMAIN TRANSFORM CAUTIONS: 
!! 1.) Do not simulate transient edge rates faster than the number listed above.  Edge rates faster than this number 
!!     contain significant spectral content at frequencies above the model's highest frequency. 
!! 2.) Even when simulating edge rates that are slower than the number listed above, be aware that the best time 
!!     resolution possible with a direct iFFT is (1 / 2Fmax).  As a result, time resolution is typically not adequate 
!!     for most time-domain simulations unless tricks such as windowing are used to minimize leakage and aliasing. 
!! 3.) Because the model has a uniform frequency step, a direct iFFT will result in an impulse that that has a time 
!!     length given by either (1 / Fstep) or (1 / 2Fstep), depending on the transform being used.  Care has been taken 
!!     in selecting the frequency step to ensure a settled impulse response for the model.  Therefore, convolution with 
!!     the model's impulse response should present no issues.  However, if directly concatenating s-parameter models 
!!     in the frequency domain a user must either interpolate necessary interim frequencies or complete impulse response 
!!     zero-padding.  Impulse response zero-padding is more difficult, but more accurate. 
!! 
!! PORT DEFINITIONS: 
!! Port   1  ----->  RX Side	F11     G11     RX Side  <-----  Port   3
!! Port   2  ----->  RX Side	F12     G12     RX Side  <-----  Port   4
!! 
!!!!!!!!!!!!!!!!!!!!!!!!!!!!!!!!!!!!!!!!!!!!!!!!!!!!!!!!!!!!!!!!!!!!!!!!!!!!!!!!!!!!!!!!!!!!!!!!!!!!!!!!!!!!!!!!!!!!!!!!
! Touchstone data
! Created: 10-Dec-2018 by IdEM R2012 (8.0.5)
# Hz S MA R 50

!
                   0         0.0517071932                    0       2.6207814e-005                    0        0.00172075336                    0       2.4042704e-005                    0
      2.6207814e-005                    0         0.0499732782                    0      2.29486713e-005                    0        0.00158941105                    0
       0.00172075336                    0      2.29486713e-005                    0         0.0519584674                    0      2.62358497e-005                    0
      2.4042704e-005                    0        0.00158941105                    0      2.62358497e-005                    0         0.0501893412                    0

!
            10000000         0.0618435976           15.5962995      2.70921451e-005          -36.3338374         0.0334878427           70.9580982      2.47839047e-005          -35.3174483
     2.70921451e-005          -36.3338374  0.06064886690000001           17.0186553      2.34831296e-005            -33.35231         0.0332549569           71.3853055
        0.0334878427           70.9580982      2.34831296e-005            -33.35231         0.0622506146           15.7555774      2.56940946e-005          -25.1901428
     2.47839047e-005          -35.3174483         0.0332549569           71.3853055      2.56940946e-005          -25.1901428         0.0610352844            17.203266

!
            20000000         0.0806461612            17.719689      2.97800376e-005          -70.2386705  0.06392024139999999           56.4674859      2.70094241e-005          -68.0671162
     2.97800376e-005          -70.2386705         0.0804095792           19.4925167      2.51972759e-005   -64.82920780000001  0.06357025500000001            57.021557
 0.06392024139999999           56.4674859      2.51972759e-005   -64.82920780000001          0.081368618           17.9017524      2.44281862e-005   -50.61826150000001
     2.70094241e-005          -68.0671162  0.06357025500000001            57.021557      2.44281862e-005   -50.61826150000001         0.0811334012           19.7015546

!
            30000000  0.09836398120000001            11.530912      3.38896332e-005          -100.707547         0.0890190199           41.2275052      3.03379985e-005          -97.2462542
     3.38896332e-005          -100.707547         0.0991935525           13.4249491      2.79445081e-005   -93.56142989999999  0.08874578919999999           41.9785177
        0.0890190199           41.2275052      2.79445081e-005   -93.56142989999999          0.099435787           11.7003829      2.27870571e-005          -76.8219282
     3.03379985e-005          -97.2462542  0.08874578919999999           41.9785177      2.27870571e-005          -76.8219282          0.100289695           13.6220071

!
            40000000          0.110209068           1.46026208      3.91716408e-005          -128.038794          0.107043774           25.9606027      3.45289091e-005          -123.163284
     3.91716408e-005          -128.038794          0.112286883           3.50836736      3.16709064e-005          -119.657108          0.107110051            26.932336
         0.107043774           25.9606027      3.16709064e-005          -119.657108          0.111637966           1.61755583      2.12752936e-005          -104.650295
     3.45289091e-005          -123.163284          0.107110051            26.932336      2.12752936e-005          -104.650295          0.113767802           3.69508516

!
            50000000          0.113942632          -10.5691985        4.560187e-005          -153.054773           0.11686583           10.7610949      3.95629329e-005          -146.686131
       4.560187e-005          -153.054773          0.117528205          -8.29090573       3.6451612e-005          -143.794445          0.117583577           11.9705791
          0.11686583           10.7610949       3.6451612e-005          -143.794445          0.115734872           -10.418438      2.05322192e-005          -134.973649
     3.95629329e-005          -146.686131          0.117583577           11.9705791      2.05322192e-005          -134.973649          0.119407106   -8.108852080000002

!
            60000000          0.108510743          -23.7936381      5.32944971e-005          -176.641192          0.117824763   -4.390537929999999 4.553909099999999e-005          -168.787772
     5.32944971e-005          -176.641192          0.113905897          -21.1845839      4.24153002e-005          -166.830453          0.119536527          -2.93107388
         0.117824763   -4.390537929999999      4.24153002e-005          -166.830453          0.110675289          -23.6427141      2.13289582e-005          -167.745909
4.553909099999999e-005          -168.787772          0.119536527          -2.93107388      2.13289582e-005          -167.745909          0.116199565          -21.0022648

!
            70000000  0.09352812369999999   -37.97829360000001      6.23495507e-005           160.428657           0.10965099          -19.4987217      5.25071444e-005           169.660036
     6.23495507e-005           160.428657           0.10103717          -34.8808777 4.961604169999999e-005           170.452621           0.11269708          -17.7934305
          0.10965099          -19.4987217 4.961604169999999e-005           170.452621  0.09607494819999998          -37.8162553      2.44146154e-005           158.736821
     5.25071444e-005           169.660036           0.11269708          -17.7934305      2.44146154e-005           158.736821          0.103763334          -34.6935383

!
            80000000         0.0691777229          -53.2643417      7.26845109e-005           137.572929         0.0925462693          -34.4189061 6.030206160000001e-005           148.010133
     7.26845109e-005           137.572929         0.0790406295          -49.3323579      5.78979958e-005           147.495222  0.09720016139999999   -32.52491910000001
        0.0925462693          -34.4189061      5.78979958e-005           147.495222         0.0721127493          -53.0570818      3.02098437e-005           126.596679
6.030206160000001e-005           148.010133  0.09720016139999999   -32.52491910000001      3.02098437e-005           126.596679         0.0822123635          -49.1309893

!
            90000000  0.03639273580000001   -71.02512400000001       8.3886974e-005           114.455892         0.0674263965          -48.5038203       6.8431504e-005           125.922731
      8.3886974e-005           114.455892         0.0486546805          -64.7938479      6.67935209e-005           124.031834         0.0737881973          -46.6716797
        0.0674263965          -48.5038203      6.67935209e-005           124.031834         0.0397064123           -70.517754 3.865481879999999e-005    96.62826310000001
      6.8431504e-005           125.922731         0.0737881973          -46.6716797 3.865481879999999e-005    96.62826310000001         0.0522729651          -64.5313917

!
           100000000        0.00491024828           146.586007 9.516608400000001e-005           91.0194357         0.0363119753   -58.48280460000001      7.60897855e-005           103.397691
9.516608400000001e-005           91.0194357         0.0115157177   -86.10557009999999 7.552114130000001e-005           100.103913  0.04412413630000001          -58.2089472
        0.0363119753   -58.48280460000001 7.552114130000001e-005           100.103913        0.00371802838          -164.999884      4.92403751e-005           68.5391607
     7.60897855e-005           103.397691  0.04412413630000001          -58.2089472      4.92403751e-005           68.5391607         0.0155424377   -84.08220590000001

!
           110000000         0.0468439545    87.84198979999999       0.000105498395           67.4672363 0.008516899790000001          0.920814531      8.23637407e-005    80.74188790000001
      0.000105498395           67.4672363         0.0301962596           89.5084564 8.315389059999999e-005           76.0190968         0.0124977996          -43.0930433
0.008516899790000001          0.920814531 8.315389059999999e-005           76.0190968         0.0428367001            88.530507      6.10794333e-005            41.918193
     8.23637407e-005    80.74188790000001         0.0124977996          -43.0930433      6.10794333e-005            41.918193         0.0257676686           90.4432053

!
           120000000         0.0905381191           69.8831728       0.000113967878    44.18413540000001         0.0364441724            61.916855 8.658799139999999e-005    58.46698520000001
      0.000113967878    44.18413540000001         0.0728613051    72.14633050000001      8.89374722e-005           52.2544516         0.0271521951    60.80737870000001
        0.0364441724            61.916855      8.89374722e-005           52.2544516         0.0862218521    70.21897840000001 7.309617719999999e-005           16.6275378
8.658799139999999e-005    58.46698520000001         0.0271521951    60.80737870000001 7.309617719999999e-005           16.6275378  0.06808286230000001    72.54612760000001

!
           130000000          0.131229101    53.49679210000001       0.000120121585           21.6077554         0.0686865661           52.4926664        8.865372e-005    37.13748950000001
      0.000120121585           21.6077554          0.113354477           56.2151732      9.25889794e-005           29.3207387         0.0594734116    55.00981320000001
        0.0686865661           52.4926664      9.25889794e-005           29.3207387           0.12665568           53.7644824      8.43553811e-005          -7.25273245
       8.865372e-005    37.13748950000001         0.0594734116    55.00981320000001      8.43553811e-005          -7.25273245          0.108291997           56.5523853

!
           140000000          0.166145268           37.7739945        0.00012410978          0.103837212         0.0960004184    39.20803939999999      8.90688354e-005           17.2146783
       0.00012410978          0.103837212          0.148844646    40.78656210000001        9.438195e-005    7.632809690000001  0.08776181550000001           42.3883262
        0.0960004184    39.20803939999999        9.438195e-005    7.632809690000001            0.1613484           38.0242181      9.43525618e-005          -29.5915296
     8.90688354e-005           17.2146783  0.08776181550000001           42.3883262      9.43525618e-005          -29.5915296          0.143550238           41.1141701

!
           150000000          0.193527627           22.5459332       0.000126557869          -20.1068367          0.116656794           25.3304412      8.87606418e-005          -1.06139825
      0.000126557869          -20.1068367          0.177393213           25.7697555 9.499363609999999e-005          -12.5707645          0.109911402    28.74813049999999
         0.116656794           25.3304412 9.499363609999999e-005          -12.5707645          0.188523973    22.79840340000001        0.00010309476          -50.3270623
     8.87606418e-005          -1.06139825          0.109911402    28.74813049999999        0.00010309476          -50.3270623          0.171902614           26.1060699

!
           160000000          0.212509747           7.70915873       0.000128321974   -38.96189990000001          0.129928594           11.4696768      8.87832396e-005          -17.7369941
      0.000128321974   -38.96189990000001          0.197941238           11.1094203      9.52614104e-005          -31.2505216          0.124985556           15.0029292
         0.129928594           11.4696768      9.52614104e-005          -31.2505216          0.207298799    7.977067309999998       0.000110988455   -69.50982120000001
     8.87832396e-005          -17.7369941          0.124985556           15.0029292       0.000110988455   -69.50982120000001           0.19227083           11.4664828

!
           170000000          0.222821434          -6.85403215       0.000130295703   -56.53883860000001          0.135613866          -2.26317898 9.007505639999999e-005          -33.1536054
      0.000130295703   -56.53883860000001          0.210072518          -3.28124094 9.599318550000001e-005          -48.5534099          0.132644591           1.34824817
         0.135613866          -2.26317898 9.599318550000001e-005          -48.5534099          0.217388862   -6.557521600000001       0.000118668345   -87.29647970000001
9.007505639999999e-005          -33.1536054          0.132644591           1.34824817       0.000118668345   -87.29647970000001          0.204220943          -2.89122499

!
           180000000          0.224514117          -21.2715456       0.000133315571          -73.0360931          0.133742695          -15.8951199      9.33033687e-005          -47.8845673
      0.000133315571          -73.0360931          0.213746202          -17.5115447 9.786692690000001e-005          -64.7868392          0.132842751          -12.2140052
         0.133742695          -15.8951199 9.786692690000001e-005          -64.7868392          0.218837667          -20.9298404       0.000126863252          -103.931702
     9.33033687e-005          -47.8845673          0.132842751          -12.2140052       0.000126863252          -103.931702          0.207699204          -17.0729778

!
           190000000          0.217820469          -35.6594791        0.00013811046          -88.7631592          0.124459209          -29.4553346      9.87744698e-005          -62.5909528
       0.00013811046          -88.7631592          0.209129854          -31.6893685       0.000101373872          -80.3803125          0.125675333          -25.7163634
         0.124459209          -29.4553346       0.000101373872          -80.3803125          0.211877554           -35.248877       0.000136302242           -119.73541
     9.87744698e-005          -62.5909528          0.125675333          -25.7163634       0.000136302242           -119.73541          0.202867012   -31.17980990000001

!
           200000000           0.20317616          -50.0944575       0.000145218201          -104.119226           0.10808576          -42.8608884       0.000106391594   -77.84095929999999
      0.000145218201          -104.119226          0.196579473          -45.8927131       0.000106753502   -95.81723959999999          0.111393404   -39.12107140000001
          0.10808576          -42.8608884       0.000106753502   -95.81723959999999          0.196952776   -49.57827950000001       0.000147607921          -135.086639
      0.000106391594   -77.84095929999999          0.111393404   -39.12107140000001       0.000147607921          -135.086639          0.190082191          -45.2772651

!
           210000000           0.18137956   -64.58198280000001       0.000154842863          -119.527578         0.0853370668          -55.7014816       0.000115660719   -93.97235270000002
      0.000154842863          -119.527578          0.176757364   -60.13703439999999       0.000113914896          -111.527664  0.09056562780000001          -52.1616497
        0.0853370668          -55.7014816       0.000113914896          -111.527664          0.174880103          -63.8994024       0.000161134131          -150.379222
      0.000115660719   -93.97235270000002  0.09056562780000001          -52.1616497       0.000161134131          -150.379222          0.170017908          -59.3574094

!
           220000000          0.153812606   -79.02156530000001       0.000166723644           -135.32281         0.0576444108          -66.4645364       0.000125766869          -111.042995
      0.000166723644           -135.32281          0.150831151   -74.33603500000001       0.000122404097           -127.76911         0.0643426533   -63.85816560000001
        0.0576444108          -66.4645364       0.000122404097           -127.76911          0.147070059           -78.063873       0.000176782801          -165.937383
      0.000125766869          -111.042995         0.0643426533   -63.85816560000001       0.000176782801          -165.937383          0.143862842   -73.28661289999999

!
           230000000          0.122584517   -93.16763880000001       0.000180158921           -151.64531         0.0279715752          -66.9713726       0.000135761761          -128.861008
      0.000180158921           -151.64531           0.12064073          -88.2478838       0.000131509821          -144.554184         0.0349270253          -69.6495548
        0.0279715752          -66.9713726       0.000131509821          -144.554184          0.115671715          -91.7220502       0.000193935269           178.078199
      0.000135761761          -128.861008         0.0349270253          -69.6495548       0.000193935269           178.078199          0.113491196   -86.71623270000001

!
           240000000  0.09044620719999999          -106.569686        0.00019427429          -168.416568         0.0150844066    8.834385340000001       0.000144865107          -147.070717
       0.00019427429          -168.416568  0.08869131330000001          -101.367849        0.00014054336          -161.672217         0.0119979174          -19.2800703
        0.0150844066    8.834385340000001        0.00014054336          -161.672217         0.0834958261          -104.167698       0.000211641225           161.712176
      0.000144865107          -147.070717         0.0119979174          -19.2800703       0.000211641225           161.712176         0.0814696823          -98.8601085

!
           250000000         0.0604313984          -118.422978       0.000208436518           174.583584         0.0395209669    34.61834420000001       0.000152773158          -165.274446
      0.000208436518           174.583584         0.0579066095           -112.58603       0.000149188197          -178.803376  0.03211250849999999           37.9250975
        0.0395209669    34.61834420000001       0.000149188197          -178.803376         0.0536976915          -113.856991       0.000229044142           145.167878
      0.000152773158          -165.274446  0.03211250849999999           37.9250975       0.000229044142           145.167878         0.0508795006          -107.674505

!
           260000000         0.0353661849          -127.131535       0.000222565525           157.586565         0.0637166416           26.9052359       0.000159797218           176.837255
      0.000222565525           157.586565         0.0313012222          -118.621195       0.000157711928           164.324244          0.057955078           32.7887531
        0.0637166416           26.9052359       0.000157711928           164.324244         0.0294675325          -116.596477       0.000245810861           128.697403
      0.000159797218           176.837255          0.057955078           32.7887531       0.000245810861           128.697403         0.0254207271          -105.517196

!
           270000000         0.0174318676          -129.359649       0.000237155982           140.722891         0.0816711541           14.6526355       0.000166734026           159.385684
      0.000237155982           140.722891         0.0124778804          -103.397863       0.000166895633           147.802964         0.0786020145           21.1407213
        0.0816711541           14.6526355       0.000166895633           147.802964         0.0143224374          -100.021813       0.000262310795            112.48847
      0.000166734026           159.385684         0.0786020145           21.1407213       0.000262310795            112.48847         0.0130576135          -62.1557833

!
           280000000        0.00736873713          -124.051772       0.000253024554           123.972212  0.09169071870000001           1.24409323       0.000174532451           142.269072
      0.000253024554           123.972212         0.0093399069           -39.876426       0.000177713623           131.494896  0.09204519720000001    8.014460029999999
 0.09169071870000001           1.24409323       0.000177713623           131.494896         0.0101260934   -66.17097390000001        0.00027947856    96.59348050000001
      0.000174532451           142.269072  0.09204519720000001    8.014460029999999        0.00027947856    96.59348050000001         0.0181189589   -26.17747380000001

!
           290000000        0.00349423815          -172.660313        0.00027092935           107.179396  0.09303456680000001          -12.3892727       0.000183905711           125.206794
       0.00027092935           107.179396         0.0116587809          -21.2194624       0.000190916953           115.082457         0.0973340476          -5.47081156
 0.09303456680000001          -12.3892727       0.000190916953           115.082457 0.007012336190000001          -58.5309331       0.000298466231            80.913084
      0.000183905711           125.206794         0.0973340476          -5.47081156       0.000298466231            80.913084         0.0212461069          -24.6006194

!
           300000000         0.0124023126           129.550141       0.000291188977           90.1172109  0.08562377540000002          -25.6923199       0.000195010265           107.847877
      0.000291188977           90.1172109         0.0076379477   -5.303716009999999       0.000206668511    98.19379570000001         0.0941434208          -18.8247526
 0.08562377540000002          -25.6923199       0.000206668511    98.19379570000001 0.003255481580000001           141.724824       0.000320207405           65.2282282
      0.000195010265           107.847877         0.0941434208          -18.8247526       0.000320207405           65.2282282         0.0165776143          -27.9502276

!
           310000000  0.03082859380000001           114.042454       0.000313374532    72.57139119999999         0.0700618324          -37.7739989       0.000207262014           89.9035138
      0.000313374532    72.57139119999999 0.009917467520000001           86.9052633       0.000224319625           80.5431957  0.08271148809999999          -31.5065426
        0.0700618324          -37.7739989       0.000224319625           80.5431957         0.0214368729           116.577382       0.000344969231           49.2722428
      0.000207262014           89.9035138  0.08271148809999999          -31.5065426       0.000344969231           49.2722428        0.00548125336           8.52601097

!
           320000000         0.0567563278           100.536781       0.000336165383           54.4247519         0.0479476463   -45.88107049999999       0.000219353384    71.25643770000001
      0.000336165383           54.4247519         0.0305580562           98.0390852       0.000242394186           62.0310702  0.06398230370000001          -42.2408263
        0.0479476463   -45.88107049999999       0.000242394186           62.0310702         0.0472619735            102.44539       0.000372002368           32.8286837
      0.000219353384    71.25643770000001  0.06398230370000001          -42.2408263       0.000372002368           32.8286837           0.01993102    96.27741430000002

!
           330000000         0.0883667776           86.5074138       0.000357514537            35.715687         0.0238663109          -35.0312146       0.000229544511    52.01495049999999
      0.000357514537            35.715687         0.0588568544    89.66939890000002       0.000258858218           42.7801629         0.0401913554   -46.30729190000001
        0.0238663109          -35.0312146       0.000258858218           42.7801629  0.07883604880000002    88.05874970000001       0.000399501216           15.8229819
      0.000229544511    52.01495049999999         0.0401913554   -46.30729190000001       0.000399501216           15.8229819         0.0479719831           90.9225421

!
           340000000          0.123097349            71.985434       0.000375214632           16.6476253         0.0233439359           32.6656855       0.000236233451    32.49985040000001
      0.000375214632           16.6476253         0.0919283823           77.4638602       0.000271700819            23.109353         0.0197936352          -15.9933357
        0.0233439359           32.6656855       0.000271700819            23.109353           0.11359218           73.2973488       0.000425075292          -1.63554776
      0.000236233451    32.49985040000001         0.0197936352          -15.9933357       0.000425075292          -1.63554776         0.0809740618           78.9192673

!
           350000000          0.158023064           57.2284688       0.000387701538          -2.45989329         0.0496990006    45.97365210000001       0.000238618086           13.1688275
      0.000387701538          -2.45989329          0.126989121            63.881958       0.000279656518    3.456203550000001         0.0320450034           39.0182441
        0.0496990006    45.97365210000001       0.000279656518    3.456203550000001           0.14859703    58.37884799999999       0.000446648356          -19.2869813
      0.000238618086           13.1688275         0.0320450034           39.0182441       0.000446648356          -19.2869813          0.116062616    65.26474380000001

!
           360000000          0.190383539    42.46774929999999       0.000394664611          -21.2606886         0.0770495209           38.8486027       0.000237100258          -5.50072293
      0.000394664611          -21.2606886          0.161187002           49.7645014 0.0002827020349999999          -15.7299957         0.0592106961           41.8824584
        0.0770495209           38.8486027 0.0002827020349999999          -15.7299957           0.18107155    43.51147140000001       0.000463314666          -36.8131304
      0.000237100258          -5.50072293         0.0592106961           41.8824584       0.000463314666          -36.8131304          0.150370546    51.05660469999999

!
           370000000          0.218007244           27.8568976       0.000397099552   -39.47230459999999          0.100512744           27.7722095       0.000233191975   -23.13647290000001
      0.000397099552   -39.47230459999999           0.19202086           35.5168152       0.000282041229          -34.0916527  0.08508377050000002           33.3230772
         0.100512744           27.7722095       0.000282041229          -34.0916527           0.20881842           28.8353035       0.000475638051          -53.9403744
      0.000233191975   -23.13647290000001  0.08508377050000002           33.3230772       0.000475638051          -53.9403744          0.181372859    36.74011819999999

!
           380000000           0.23946509           13.4613827       0.000396849698           -56.931637          0.118448881           15.6240541       0.000229015268   -39.57093480000001
      0.000396849698           -56.931637          0.217643084           21.3436594       0.000279642407          -51.4335428          0.106468318           22.0549253
         0.118448881           15.6240541       0.000279642407          -51.4335428          0.230382361           14.4084961       0.000485304446   -70.50766609999999
      0.000229015268   -39.57093480000001          0.106468318           22.0549253       0.000485304446   -70.50766609999999          0.207189972    22.52576880000001

!
           390000000          0.253971305  -0.7309898620000001       0.000396001669          -73.6064894          0.130158744    3.188707459999999       0.000226699733          -54.8946353
      0.000396001669          -73.6064894           0.23690757    7.321976940000001       0.000277648612          -67.7506921          0.122116181    9.979419930000001
         0.130158744    3.188707459999999       0.000277648612          -67.7506921          0.244956879          0.215958544 0.0004944763090000001          -86.4849566