! Tyco Electronics Strada Whisper System
! FEXT_G89_G1112
!! 
!! SYSTEM DESCRIPTION: Daughtercard-Footprint-Connector-Footprint-Daughtercard
!! PCB DESCRIPTION: DC: 140mil, Megtron7N, upper layer route, 15mil stub, 6-6-6mil 12" traces
!! CONNECTOR DESCRIPTION: Next-Gen STRADA Whisper Direct-Plug Orthogonal Connector
!! MODEL DESCRIPTION: Tyco Electronics System 4-port S-parameter 
!! MODEL STATUS: Developmental
!! MODEL GEOMETRY: Channel Model
!! MODEL FREQUENCY RANGE: DC to 60 GHz in 10 MHz frequency steps
!! MODEL EDGE RATE LIMITATION: 8.3 ps (Using conservative 0.5/Fmax rule of thumb)
!! 
!! TIME-DOMAIN TRANSFORM CAUTIONS: 
!! 1.) Do not simulate transient edge rates faster than the number listed above.  Edge rates faster than this number 
!!     contain significant spectral content at frequencies above the model's highest frequency. 
!! 2.) Even when simulating edge rates that are slower than the number listed above, be aware that the best time 
!!     resolution possible with a direct iFFT is (1 / 2Fmax).  As a result, time resolution is typically not adequate 
!!     for most time-domain simulations unless tricks such as windowing are used to minimize leakage and aliasing. 
!! 3.) Because the model has a uniform frequency step, a direct iFFT will result in an impulse that that has a time 
!!     length given by either (1 / Fstep) or (1 / 2Fstep), depending on the transform being used.  Care has been taken 
!!     in selecting the frequency step to ensure a settled impulse response for the model.  Therefore, convolution with 
!!     the model's impulse response should present no issues.  However, if directly concatenating s-parameter models 
!!     in the frequency domain a user must either interpolate necessary interim frequencies or complete impulse response 
!!     zero-padding.  Impulse response zero-padding is more difficult, but more accurate. 
!! 
!! PORT DEFINITIONS: 
!! Port   1  ----->  TX Side	G8     G11     RX Side  <-----  Port   3
!! Port   2  ----->  TX Side	G9     G12     RX Side  <-----  Port   4
!! 
!!!!!!!!!!!!!!!!!!!!!!!!!!!!!!!!!!!!!!!!!!!!!!!!!!!!!!!!!!!!!!!!!!!!!!!!!!!!!!!!!!!!!!!!!!!!!!!!!!!!!!!!!!!!!!!!!!!!!!!!
! Touchstone data
! Created: 10-Dec-2018 by IdEM R2012 (8.0.5)
# Hz S MA R 50

!
                   0         0.0514105367                    0        5.018562e-006                  180        0.00190984166                    0      2.23362861e-006                  180
       5.018562e-006                  180         0.0491904409                    0      1.68803097e-005                  180        0.00147443819                    0
       0.00190984166                    0      1.68803097e-005                  180         0.0515213991                    0      5.23981371e-006                  180
     2.23362861e-006                  180        0.00147443819                    0      5.23981371e-006                  180         0.0493818421                    0

!
            10000000         0.0616659692           15.8109953      5.89529012e-006           178.582117         0.0336020913           70.6216743      3.74290333e-006          -147.799884
     5.89529012e-006           178.582117  0.06008876929999999           17.5870016      1.77035917e-005           152.162753         0.0332139882           71.6187889
        0.0336020913           70.6216743      1.77035917e-005           152.162753         0.0619295343           16.0101787      1.52818249e-005    93.40166960000001
     3.74290333e-006          -147.799884         0.0332139882           71.6187889      1.52818249e-005    93.40166960000001         0.0604139827           17.7204337

!
            20000000  0.08067217090000001            17.924155 8.053028730000001e-006           165.547736         0.0641311468    56.25374269999999 6.296691430000001e-006           -153.19172
8.053028730000001e-006           165.547736  0.08020915100000001             20.14341      2.02523619e-005           125.454366         0.0635162702           57.2016261
        0.0641311468    56.25374269999999      2.02523619e-005           125.454366         0.0812306255           18.1561476      2.92932592e-005           67.0982199
6.296691430000001e-006           -153.19172         0.0635162702           57.2016261      2.92932592e-005           67.0982199          0.080798358           20.2903344

!
            30000000  0.09858315690000001           11.6660592      1.09058174e-005           144.827233         0.0893260471           41.0298026 8.820592839999999e-006          -168.268932
     1.09058174e-005           144.827233  0.09934369059999999           14.0638504      2.44205225e-005            100.27866  0.08871485479999999           42.1695065
        0.0893260471           41.0298026      2.44205225e-005            100.27866          0.099453024           11.8929564      4.38610576e-005    47.08705650000001
8.820592839999999e-006          -168.268932  0.08871485479999999           42.1695065      4.38610576e-005    47.08705650000001          0.100222149           14.1980535

!
            40000000          0.110608682           1.51623805      1.42398281e-005           120.807719          0.107443884    25.74520740000001      1.10608898e-005           173.584191
     1.42398281e-005           120.807719          0.112803894           4.14960453      3.01219081e-005           76.3230547          0.107153788           27.1512507
         0.107443884    25.74520740000001      3.01219081e-005           76.3230547          0.111784604           1.74466565      5.89749356e-005            28.691237
     1.10608898e-005           173.584191          0.107153788           27.1512507      5.89749356e-005            28.691237          0.113977925           4.27240489

!
            50000000          0.114517721          -10.6050831      1.79914853e-005           95.4467841          0.117356173           10.5038189      1.28530066e-005           154.032955
     1.79914853e-005           95.4467841          0.118456749   -7.620859779999999      3.73074236e-005    53.05287030000001          0.117765227           12.2247532
         0.117356173           10.5038189      3.73074236e-005    53.05287030000001          0.115994598          -10.3589102      7.48370219e-005           10.8178192
     1.28530066e-005           154.032955          0.117765227           12.2247532      7.48370219e-005           10.8178192          0.119932468          -7.50559138

!
            60000000           0.10926228          -23.9528163      2.21102069e-005    69.44076560000001          0.118402586           -4.7192812      1.40075975e-005           133.691106
     2.21102069e-005    69.44076560000001          0.115307034          -20.4572412      4.59283216e-005           29.9760642          0.119927446          -2.63923964
         0.118402586           -4.7192812      4.59283216e-005           29.9760642          0.111038271          -23.6639602      9.16669486e-005   -7.006782479999999
     1.40075975e-005           133.691106          0.119927446          -2.63923964      9.16669486e-005   -7.006782479999999          0.117093327   -20.34660810000001

!
            70000000         0.0944619345          -38.3341192      2.64837528e-005           42.9445951          0.110311508   -19.94763560000001      1.42879859e-005           113.043633
     2.64837528e-005           42.9445951          0.102977013           -34.060162      5.58563314e-005    6.713578749999999          0.113369951   -17.46873550000001
         0.110311508   -19.94763560000001      5.58563314e-005    6.713578749999999         0.0965362708           -37.954932       0.000109572559          -25.0823595
     1.42879859e-005           113.043633          0.113369951   -17.46873550000001       0.000109572559          -25.0823595          0.105084243          -33.9523133

!
            80000000         0.0703083426   -54.01038820000001      3.08817874e-005    15.92497710000001         0.0932772127          -35.0861321      1.34476421e-005           92.9913421
     3.08817874e-005    15.92497710000001  0.08157475860000001          -48.3547351      6.67774923e-005           -16.981691  0.09821504270000001   -32.18930499999999
        0.0932772127          -35.0861321      6.67774923e-005           -16.981691         0.0726740919          -53.4136999       0.000128390229          -43.6147635
     1.34476421e-005           92.9913421  0.09821504270000001   -32.18930499999999       0.000128390229          -43.6147635         0.0840112074   -48.24772969999999

!
            90000000         0.0377809327   -72.92067350000001      3.49278947e-005          -11.6477519         0.0681926871          -49.6411717      1.13708536e-005    75.85501309999999
     3.49278947e-005          -11.6477519         0.0518037113          -63.4640527       7.8100025e-005          -41.2038289  0.07516846570000001          -46.3996922
        0.0681926871          -49.6411717       7.8100025e-005          -41.2038289         0.0403932733          -71.4798955       0.000147534183   -62.70049510000001
     1.13708536e-005    75.85501309999999  0.07516846570000001          -46.3996922       0.000147534183   -62.70049510000001  0.05457078340000001   -63.34567850000001

!
           100000000         0.0057838143           169.618514      3.81376867e-005          -39.6972465         0.0369759715          -61.1156731      8.48952415e-006           68.5010626
     3.81376867e-005          -39.6972465         0.0151944601          -81.5217921 8.895208990000001e-005          -65.8743807  0.04581365280000001          -58.3358206
        0.0369759715          -61.1156731 8.895208990000001e-005          -65.8743807        0.00483860337          -158.060182       0.000165970053          -82.2886481
     8.48952415e-006           68.5010626  0.04581365280000001          -58.3358206       0.000165970053          -82.2886481         0.0182791447          -80.9260489

!
           110000000         0.0455744582           90.9112544      4.00460027e-005          -68.0205012        0.00684023079          -8.34501758      7.11011836e-006           84.0545992
     4.00460027e-005          -68.0205012         0.0259452902           89.7004427 9.834347340000002e-005          -90.7507013         0.0138751671          -49.0810892
       0.00684023079          -8.34501758 9.834347340000002e-005          -90.7507013         0.0422191631           90.4108202       0.000182442312          -102.167632
     7.11011836e-006           84.0545992         0.0138751671          -49.0810892       0.000182442312          -102.167632         0.0225690206    90.42176840000001

!
           120000000         0.0890715334    71.75802210000001 4.037758829999999e-005          -96.3541307         0.0349008957           64.7773376      1.04067774e-005    97.47627380000002
4.037758829999999e-005          -96.3541307  0.06831226930000001    72.67013799999999       0.000105467405          -115.484392         0.0249861113           60.9010059
        0.0349008957           64.7773376       0.000105467405          -115.484392  0.08548833689999999           71.3417791       0.000195939453          -122.009811
     1.04067774e-005    97.47627380000002         0.0249861113           60.9010059       0.000195939453          -122.009811  0.06466576340000001    72.94899580000001

!
           130000000          0.129652746           55.0156771      3.91500975e-005          -124.507832         0.0672674592           54.3608945      1.63524837e-005           88.5248651
     3.91500975e-005          -124.507832          0.108701861            56.895989       0.000109972833          -139.721089         0.0573401556    55.95014880000001
        0.0672674592           54.3608945       0.000109972833          -139.721089          0.125849162           54.6724701       0.000206137566          -141.469506
     1.63524837e-005           88.5248651         0.0573401556    55.95014880000001       0.000206137566          -141.469506          0.104826187    57.12413520000001

!
           140000000          0.164499114           39.1617235      3.66340372e-005          -152.516381          0.094614737           40.7470483      2.27612422e-005           70.6542304
     3.66340372e-005          -152.516381          0.144275983           41.5592076       0.000112019689          -163.198826  0.08585171949999999           43.4129089
         0.094614737           40.7470483       0.000112019689          -163.198826          0.160482886           38.8565903       0.000213511815          -160.288239
     2.27612422e-005           70.6542304  0.08585171949999999           43.4129089       0.000213511815          -160.288239          0.140202791    41.77764189999999

!
           150000000          0.191839343           23.9069451      3.32173041e-005            179.22719          0.115289868            26.760956      2.87955654e-005    50.10811489999999
     3.32173041e-005            179.22719          0.173055858           26.6069091       0.000112099863           174.198969          0.108342826    29.79840659999999
         0.115289868            26.760956       0.000112099863           174.198969           0.18760777           23.6198701       0.000219069718          -178.355785
     2.87955654e-005    50.10811489999999          0.108342826    29.79840659999999       0.000219069718          -178.355785          0.168805178           26.8301926

!
           160000000          0.210801477           9.11296791       2.9298117e-005           149.839676          0.128581522           12.9093525      3.41680069e-005           28.9999889
      2.9298117e-005           149.839676          0.193935388            12.000642       0.000110772294           152.447525          0.123833364           16.0725457
         0.128581522           12.9093525       0.000110772294           152.447525          0.206339221    8.831646169999999       0.000223938288           164.290098
     3.41680069e-005           28.9999889          0.123833364           16.0725457       0.000223938288           164.290098          0.189513626           12.2386395

!
           170000000          0.221113941   -5.345658739999999      2.53085576e-005           117.761836          0.134295668         -0.720555504      3.88677813e-005            8.0940753
     2.53085576e-005           117.761836          0.206459939          -2.33638606        0.00010845856           131.423416           0.13195146           2.44394519
         0.134295668         -0.720555504        0.00010845856           131.423416          0.216394988   -5.629566520000001       0.000229045593           147.506706
     3.88677813e-005            8.0940753           0.13195146           2.44394519       0.000229045593           147.506706          0.201861302          -2.07353943

!
           180000000          0.222831408          -19.5903092      2.19300929e-005    80.67199410000001          0.132473016           -14.145003      4.30278398e-005          -12.3736281
     2.19300929e-005    80.67199410000001           0.21056276          -16.5068022       0.000105344878           110.962709           0.13263225          -11.0786254
         0.132473016           -14.145003       0.000105344878           110.962709          0.217823338          -19.8828078       0.000234973704           131.103495
     4.30278398e-005          -12.3736281           0.13263225          -11.0786254       0.000234973704           131.103495          0.205773205           -16.206116

!
           190000000            0.2161959   -33.71767930000001      2.04440665e-005           36.8844025          0.123277135          -27.3489228 4.683655629999999e-005          -32.4210409
     2.04440665e-005           36.8844025          0.206393524   -30.61367269999999       0.000101368791           90.9240755          0.125959551   -24.52261890000001
         0.123277135          -27.3489228       0.000101368791           90.9240755          0.210865541   -34.02284350000001       0.000241941538           114.894171
4.683655629999999e-005          -32.4210409          0.125959551   -24.52261890000001       0.000241941538           114.894171           0.20139633   -30.25646830000001

!
           200000000          0.201661154   -47.76754520000001      2.24759904e-005          -10.0845677           0.10706872          -40.1441967      5.04669261e-005   -52.21195889999999
     2.24759904e-005          -10.0845677          0.194289881   -44.73095230000001      9.62666358e-005           71.2604202          0.112171626   -37.84567760000001
          0.10706872          -40.1441967      9.62666358e-005           71.2604202          0.195981103   -48.08659920000001       0.000249863135    98.73626540000001
     5.04669261e-005   -52.21195889999999          0.112171626   -37.84567760000001       0.000249863135    98.73626540000001          0.189072405          -44.2882197

!
           210000000          0.180056778          -61.6793136      2.85033422e-005          -52.9773531         0.0846489087          -51.8589603      5.40049123e-005   -71.98960889999999
     2.85033422e-005          -52.9773531          0.174886558   -58.86907460000001      8.96854557e-005           52.1109549         0.0918147453          -50.7767976
        0.0846489087          -51.8589603      8.96854557e-005           52.1109549          0.174012103   -62.00699590000001       0.000258462174    82.55509030000002
     5.40049123e-005   -71.98960889999999         0.0918147453          -50.7767976       0.000258462174    82.55509030000002          0.169447985   -58.29240100000001

!
           220000000          0.152817273          -75.2316692      3.76167382e-005          -89.7793594  0.05770440599999999          -60.1943304 5.738242729999999e-005   -91.99756840000001
     3.76167382e-005          -89.7793594          0.149309549          -72.9316419      8.13824031e-005           33.9314741  0.06600545989999999          -62.3410564
 0.05770440599999999          -60.1943304      8.13824031e-005           33.9314741          0.146411373   -75.54516940000001       0.000267441265           66.3470176
5.738242729999999e-005   -91.99756840000001  0.06600545989999999          -62.3410564       0.000267441265           66.3470176          0.143669673          -72.1332413

!
           230000000          0.122142473          -87.9479113      4.86730385e-005          -122.293994         0.0303936255          -54.2752926      6.03547787e-005           -112.38545
     4.86730385e-005          -122.293994          0.119347836          -86.6505698      7.15307227e-005           17.6879838  0.03690671730000001   -68.19311020000001
        0.0303936255          -54.2752926      7.15307227e-005           17.6879838            0.1154025   -88.17254509999999       0.000276671873           50.1566909
     6.03547787e-005           -112.38545  0.03690671730000001   -68.19311020000001       0.000276671873           50.1566909          0.113558581          -85.4532164

!
           240000000         0.0909502138   -98.91284140000001      6.06907374e-005          -152.215224         0.0223200937           3.15518906 6.256419890000001e-005          -133.144059
     6.06907374e-005          -152.215224         0.0874654612          -99.4447352 6.114934269999999e-005    5.104536220000001         0.0132012124          -25.8490644
        0.0223200937           3.15518906 6.114934269999999e-005    5.104536220000001         0.0839416606          -98.8064703       0.000286313526           34.0327812
6.256419890000001e-005          -133.144059         0.0132012124          -25.8490644       0.000286313526           34.0327812         0.0816353385          -97.4325571

!
           250000000         0.0626051401          -106.380127      7.28466237e-005           179.526275         0.0440521194           25.5228819      6.36708952e-005           -154.11403
     7.28466237e-005           179.526275         0.0565931331          -109.945368      5.26736685e-005          -1.49238825         0.0309434009           36.2131151
        0.0440521194           25.5228819      5.26736685e-005          -1.49238825         0.0555053004          -105.111828       0.000296777088           17.9841957
     6.36708952e-005           -154.11403         0.0309434009           36.2131151       0.000296777088           17.9841957         0.0509779771          -105.893136

!
           260000000         0.0405633626          -107.288626 8.450847350000002e-005            152.46098         0.0671760037            20.036822      6.34648296e-005          -175.056083
8.450847350000002e-005            152.46098         0.0299190691          -113.686933      5.01043248e-005          -1.83660996         0.0568751071           32.6790279
        0.0671760037            20.036822      5.01043248e-005          -1.83660996         0.0339887908          -102.081985       0.000308557661           1.96241037
     6.34648296e-005          -175.056083         0.0568751071           32.6790279       0.000308557661           1.96241037         0.0254490573          -102.500338

!
           270000000         0.0275154452          -99.9004826      9.52571959e-005           126.308716           0.08458994    8.696310540000001      6.18848378e-005           164.278966
     9.52571959e-005           126.308716         0.0123382418   -87.88328850000001       5.6501631e-005          -1.99410432  0.07800515330000001           21.4681102
          0.08458994    8.696310540000001       5.6501631e-005          -1.99410432         0.0231099064          -85.9693967       0.000322060769          -14.1260818
     6.18848378e-005           164.278966  0.07800515330000001           21.4681102       0.000322060769          -14.1260818         0.0139688975          -56.9199925

!
           280000000          0.022031165   -94.58168430000001       0.000104826199           100.839495         0.0942313444          -4.51724672      5.89592917e-005           144.141076
      0.000104826199           100.839495         0.0130365804          -31.6062727 7.081544059999999e-005   -8.228305370000001  0.09213658900000001    8.503215319999999
        0.0942313444          -4.51724672 7.081544059999999e-005   -8.228305370000001         0.0204558199          -74.1856595       0.000337502444          -30.3964176
     5.89592917e-005           144.141076  0.09213658900000001    8.503215319999999       0.000337502444          -30.3964176         0.0201388771          -24.2916644

!
           290000000          0.018315524          -108.480876       0.000112974008           75.8314614  0.09522692889999999          -18.5023914      5.47507116e-005           124.863584
      0.000112974008           75.8314614         0.0165524012          -22.3266627 9.015333899999999e-005          -20.6130094         0.0982491831          -4.95420549
 0.09522692889999999          -18.5023914 9.015333899999999e-005          -20.6130094         0.0171931336   -83.25590560000001       0.000354850068           -46.967814
     5.47507116e-005           124.863584         0.0982491831          -4.95420549       0.000354850068           -46.967814         0.0241375471          -23.9811829

!
           300000000         0.0169001478          -155.466162       0.000119356869           51.0856202          0.087400559          -32.8152826      4.93932877e-005           107.052029
      0.000119356869           51.0856202         0.0129173299          -20.7223741        0.00011232431          -37.1306364  0.09595489450000001          -18.4088448
         0.087400559          -32.8152826        0.00011232431          -37.1306364         0.0116112435          -130.762722       0.000373734042          -63.9504567
     4.93932877e-005           107.052029  0.09595489450000001          -18.4088448       0.000373734042          -63.9504567         0.0203503447          -29.4269919

!
           310000000         0.0285831949           151.762931        0.00012347179           26.4671213         0.0712062378          -47.0874443 4.329700719999999e-005           91.8783918
       0.00012347179           26.4671213        0.00571233597           43.1118765       0.000135767384   -56.28318010000001         0.0854018537          -31.4082074
        0.0712062378          -47.0874443       0.000135767384   -56.28318010000001         0.0204182783             151.6219       0.000393322842          -81.4262164
4.329700719999999e-005           91.8783918         0.0854018537          -31.4082074       0.000393322842          -81.4262164        0.00872968029          -20.7968232

!
           320000000         0.0526165874           121.657171       0.000124722729           1.95016519         0.0478202107   -60.45003800000001      3.75696572e-005    81.24632939999999
      0.000124722729           1.95016519         0.0224290038    96.73143640000001       0.000159014944          -77.1625367         0.0673689906          -42.9865764
        0.0478202107   -60.45003800000001       0.000159014944          -77.1625367         0.0446319625           118.822926       0.000412251768   -99.41834870000001
     3.75696572e-005    81.24632939999999         0.0673689906          -42.9865764       0.000412251768   -99.41834870000001         0.0142211379    93.05885189999999

!
           330000000  0.08374022499999999           100.552317       0.000122619162          -22.3551251           0.01939146          -67.1483461      3.44220828e-005           76.4222018
      0.000122619162          -22.3551251  0.04972692940000001           91.2983916       0.000180503476   -99.14953430000001         0.0436552704          -49.7664311
          0.01939146          -67.1483461       0.000180503476   -99.14953430000001  0.07588772720000001           98.2230617       0.000428760416          -117.859156
     3.44220828e-005           76.4222018         0.0436552704          -49.7664311       0.000428760416          -117.859156          0.041275727    92.34266510000001

!
           340000000           0.11843408    82.46136989999999       0.000117029781          -46.2142189         0.0137242809           61.9821187       3.6193931e-005           73.8209865
      0.000117029781          -46.2142189  0.08223890170000001           79.6884888       0.000198756391          -121.733496  0.01998913500000001          -30.5059058
        0.0137242809           61.9821187       0.000198756391          -121.733496          0.110620332           80.6270851       0.000441138729          -136.576647
      3.6193931e-005           73.8209865  0.01998913500000001          -30.5059058       0.000441138729          -136.576647         0.0737432244           80.9046682

!
           350000000          0.153512126           65.6935146       0.000108328543          -69.3253414         0.0446402268           61.4169066 4.268344310000001e-005           66.7760938
      0.000108328543          -69.3253414          0.117169522    66.30138100000001        0.00021277402          -144.458146         0.0263964135           38.2283889
        0.0446402268           61.4169066        0.00021277402          -144.458146          0.145701464           64.1897065       0.000448358764          -155.319564
4.268344310000001e-005           66.7760938         0.0263964135           38.2283889       0.000448358764          -155.319564          0.108682859           67.4170512

!
           360000000          0.186123486    49.73480479999999       9.7298765e-005   -91.40127080000001         0.0734583227           49.1539477        5.144214e-005    53.74131389999999
      9.7298765e-005   -91.40127080000001          0.151667122           52.2586155       0.000222345064          -166.943741  0.05367653319999999    44.63063680000001
        0.0734583227           49.1539477       0.000222345064          -166.943741          0.178297394    48.44374520000001       0.000450534369          -173.819506
       5.144214e-005    53.74131389999999  0.05367653319999999    44.63063680000001       0.000450534369          -173.819506          0.143235444           53.2734291

!
           370000000          0.214058664           34.4082591 8.483385229999999e-005           -112.22728         0.0977755125           35.8940351      6.02621133e-005    36.78585170000001
8.483385229999999e-005           -112.22728          0.183166549           38.0384076       0.000228045898           171.068279  0.08026150019999999           36.3598794
        0.0977755125           35.8940351       0.000228045898           171.068279          0.206193497           33.2529613       0.000448896702           168.136476
     6.02621133e-005    36.78585170000001  0.08026150019999999           36.3598794       0.000448896702           168.136476          0.174822587           38.9812524

!
           380000000          0.235872252           19.6186462 7.162914289999999e-005          -131.639201           0.11636717           22.7040609 6.794227239999999e-005           17.8965662
7.162914289999999e-005          -131.639201          0.209716311           23.8763875       0.000230935163           149.689598          0.102558841           25.0711248
          0.11636717           22.7040609       0.000230935163           149.689598          0.227930673           18.5472841        0.00044532034           150.655803
6.794227239999999e-005           17.8965662          0.102558841           25.0711248        0.00044532034           150.655803          0.201472552           24.7764178

!
           390000000          0.250774869           5.27410685 5.803964759999999e-005          -149.359518          0.128665446    9.825235220000002      7.40522185e-005          -1.71599073
5.803964759999999e-005          -149.359518          0.230066881    9.868394079999998       0.000232148094           128.893382          0.119222004           12.9516222