! Tyco Electronics Strada Whisper System
! NEXT_F1415_G1112
!! 
!! SYSTEM DESCRIPTION: Daughtercard-Footprint-Connector-Footprint-Daughtercard
!! PCB DESCRIPTION: DC: 140mil, Megtron7N, upper layer route, 15mil stub, 6-6-6mil 12" traces
!! CONNECTOR DESCRIPTION: Next-Gen STRADA Whisper Direct-Plug Orthogonal Connector
!! MODEL DESCRIPTION: Tyco Electronics System 4-port S-parameter 
!! MODEL STATUS: Developmental
!! MODEL GEOMETRY: Channel Model
!! MODEL FREQUENCY RANGE: DC to 60 GHz in 10 MHz frequency steps
!! MODEL EDGE RATE LIMITATION: 8.3 ps (Using conservative 0.5/Fmax rule of thumb)
!! 
!! TIME-DOMAIN TRANSFORM CAUTIONS: 
!! 1.) Do not simulate transient edge rates faster than the number listed above.  Edge rates faster than this number 
!!     contain significant spectral content at frequencies above the model's highest frequency. 
!! 2.) Even when simulating edge rates that are slower than the number listed above, be aware that the best time 
!!     resolution possible with a direct iFFT is (1 / 2Fmax).  As a result, time resolution is typically not adequate 
!!     for most time-domain simulations unless tricks such as windowing are used to minimize leakage and aliasing. 
!! 3.) Because the model has a uniform frequency step, a direct iFFT will result in an impulse that that has a time 
!!     length given by either (1 / Fstep) or (1 / 2Fstep), depending on the transform being used.  Care has been taken 
!!     in selecting the frequency step to ensure a settled impulse response for the model.  Therefore, convolution with 
!!     the model's impulse response should present no issues.  However, if directly concatenating s-parameter models 
!!     in the frequency domain a user must either interpolate necessary interim frequencies or complete impulse response 
!!     zero-padding.  Impulse response zero-padding is more difficult, but more accurate. 
!! 
!! PORT DEFINITIONS: 
!! Port   1  ----->  RX Side	F14     G11     RX Side  <-----  Port   3
!! Port   2  ----->  RX Side	F15     G12     RX Side  <-----  Port   4
!! 
!!!!!!!!!!!!!!!!!!!!!!!!!!!!!!!!!!!!!!!!!!!!!!!!!!!!!!!!!!!!!!!!!!!!!!!!!!!!!!!!!!!!!!!!!!!!!!!!!!!!!!!!!!!!!!!!!!!!!!!!! Touchstone data
! Created: 10-Dec-2018 by IdEM R2012 (8.0.5)
# Hz S MA R 50

!
                   0         0.0517071932                    0      1.11727426e-006                    0        0.00172075336                    0      1.72412203e-006                    0
     1.11727426e-006                    0         0.0521250446                    0      6.69318092e-007                    0         0.0019420529                    0
       0.00172075336                    0      6.69318092e-007                    0         0.0519584674                    0      1.06443172e-006                    0
     1.72412203e-006                    0         0.0019420529                    0      1.06443172e-006                    0         0.0525041071                    0

!
            10000000         0.0618435976           15.5962995      3.26573722e-006          -74.4015351         0.0334878427           70.9580982      5.81256945e-006          -86.5051871
     3.26573722e-006          -74.4015351         0.0622040992    15.46600800000001      1.01192513e-005   -98.55237870000002         0.0335097327    70.65055099999999
        0.0334878427           70.9580982      1.01192513e-005   -98.55237870000002         0.0622506146           15.7555774      3.43718561e-006           43.9704507
     5.81256945e-006          -86.5051871         0.0335097327    70.65055099999999      3.43718561e-006           43.9704507  0.06269011319999999           15.5273827

!
            20000000         0.0806461612            17.719689      7.16233926e-006   -94.23223179999999  0.06392024139999999           56.4674859      1.17351407e-005          -109.773246
     7.16233926e-006   -94.23223179999999         0.0809564525           17.6442068      2.10702722e-005          -113.601557         0.0639765112           56.4083945
 0.06392024139999999           56.4674859      2.10702722e-005          -113.601557          0.081368618           17.9017524 6.398916350000001e-006           24.2995091
     1.17351407e-005          -109.773246         0.0639765112           56.4083945 6.398916350000001e-006           24.2995091         0.0816794753           17.7227632

!
            30000000  0.09836398120000001            11.530912      1.25882259e-005          -111.682517         0.0890190199           41.2275052      1.86275907e-005          -128.497837
     1.25882259e-005          -111.682517  0.09870885879999999           11.5558351      3.35442359e-005          -128.523335  0.08916960710000001           41.2940791
        0.0890190199           41.2275052      3.35442359e-005          -128.523335          0.099435787           11.7003829 9.044548780000001e-006          -1.34519662
     1.86275907e-005          -128.497837  0.08916960710000001           41.2940791 9.044548780000001e-006          -1.34519662         0.0997167403           11.6369311

!
            40000000          0.110209068           1.46026208      1.97245677e-005          -130.506643          0.107043774           25.9606027      2.66948673e-005           -146.85038
     1.97245677e-005          -130.506643           0.11068431           1.58939141      4.79166513e-005          -144.358995          0.107364712           26.1232577
         0.107043774           25.9606027      4.79166513e-005          -144.358995          0.111637966           1.61755583      1.12415738e-005          -29.2399363
     2.66948673e-005           -146.85038          0.107364712           26.1232577      1.12415738e-005          -29.2399363          0.112001982           1.67090809

!
            50000000          0.113942632          -10.5691985      2.86923473e-005          -150.780045           0.11686583           10.7610949      3.61401835e-005          -165.644107
     2.86923473e-005          -150.780045          0.114647764          -10.3318946      6.43803275e-005          -161.236498          0.117446101           11.0097197
          0.11686583           10.7610949      6.43803275e-005          -161.236498          0.115734872           -10.418438      1.29329753e-005          -59.1801847
     3.61401835e-005          -165.644107          0.117446101           11.0097197      1.29329753e-005          -59.1801847          0.116296611          -10.2505585

!
            60000000          0.108510743          -23.7936381       3.9582121e-005          -172.307705          0.117824763   -4.390537929999999       4.7148125e-005           174.853249
      3.9582121e-005          -172.307705          0.109548047           -23.434738      8.29856486e-005          -179.153031          0.118761238           -4.0602339
         0.117824763   -4.390537929999999      8.29856486e-005          -179.153031          0.110675289          -23.6427141      1.41201586e-005          -91.8260978
      4.7148125e-005           174.853249          0.118761238           -4.0602339      1.41201586e-005          -91.8260978          0.111549913          -23.3551208

!
            70000000  0.09352812369999999   -37.97829360000001      5.23858522e-005           165.019862           0.10965099          -19.4987217      5.98175086e-005           154.484553
     5.23858522e-005           165.019862          0.094996426          -37.4660262       0.000103566228           161.893695          0.111039067   -19.09279580000001
          0.10965099          -19.4987217       0.000103566228           161.893695  0.09607494819999998          -37.8162553      1.49246579e-005          -128.262747
     5.98175086e-005           154.484553          0.111039067   -19.09279580000001      1.49246579e-005          -128.262747  0.09737195300000001   -37.39095630000001

!
            80000000         0.0691777229          -53.2643417      6.68535615e-005           141.271777         0.0925462693          -34.4189061      7.40159084e-005           133.153395
     6.68535615e-005           141.271777         0.0711548655   -52.51273400000001       0.000125564425           141.917265  0.09446136249999999          -33.9586838
        0.0925462693          -34.4189061       0.000125564425           141.917265         0.0721127493          -53.0570818      1.57349113e-005          -169.511236
     7.40159084e-005           133.153395  0.09446136249999999          -33.9586838      1.57349113e-005          -169.511236         0.0739188224   -52.44206410000001

!
            90000000  0.03639273580000001   -71.02512400000001 8.234002819999999e-005           116.568344         0.0674263965          -48.5038203       8.9212698e-005           110.875819
8.234002819999999e-005           116.568344         0.0388953747          -69.5961605       0.000147861206           121.001852         0.0698932608          -48.0771625
        0.0674263965          -48.5038203       0.000147861206           121.001852         0.0397064123           -70.517754      1.73258014e-005           144.819471
      8.9212698e-005           110.875819         0.0698932608          -48.0771625      1.73258014e-005           144.819471         0.0420501403          -69.4447346

!
           100000000        0.00491024828           146.586007      9.77582833e-005           91.1504822         0.0363119753   -58.48280460000001       0.000104419678    87.83935080000001
     9.77582833e-005           91.1504822        0.00319021899          -174.970579       0.000168793929    99.35921450000001         0.0392453351   -58.67662299999999
        0.0363119753   -58.48280460000001       0.000168793929    99.35921450000001        0.00371802838          -164.999884      2.05733017e-005    97.86847780000001
      0.000104419678    87.83935080000001         0.0392453351   -58.67662299999999      2.05733017e-005    97.86847780000001        0.00476766306          -127.090479

!
           110000000         0.0468439545    87.84198979999999       0.000111766131            65.396202 0.008516899790000001          0.920814531       0.000118383101           64.4122471
      0.000111766131            65.396202  0.04337669869999999           88.2091987       0.000186522941           77.3418097        0.00928879162          -19.6010617
0.008516899790000001          0.920814531       0.000186522941           77.3418097         0.0428367001            88.530507      2.57555272e-005    53.52091520000001
      0.000118383101           64.4122471        0.00928879162          -19.6010617      2.57555272e-005    53.52091520000001         0.0395696782            89.296521

!
           120000000         0.0905381191           69.8831728       0.000123179797           39.7679861         0.0364441724            61.916855       0.000130023367    41.07483780000001
      0.000123179797           39.7679861  0.08690228730000001           70.3397834       0.000199668588           55.3877579         0.0330156314           61.1254602
        0.0364441724            61.916855       0.000199668588           55.3877579         0.0862218521    70.21897840000001      3.23663463e-005           13.3718298
      0.000130023367    41.07483780000001         0.0330156314           61.1254602      3.23663463e-005           13.3718298  0.08278929479999998           70.9020816

!
           130000000          0.131229101    53.49679210000001       0.000131386375           14.7099633         0.0686865661           52.4926664       0.000138869749            18.292866
      0.000131386375           14.7099633           0.12764402           54.0309125       0.000207828196    33.91478550000001  0.06518564690000001            52.873699
        0.0686865661           52.4926664       0.000207828196    33.91478550000001           0.12665568           53.7644824      3.95986424e-005          -22.8279636
      0.000138869749            18.292866  0.06518564690000001            52.873699      3.95986424e-005          -22.8279636          0.123294724             54.48147

!
           140000000          0.166145268           37.7739945       0.000136474935   -9.452360770000002         0.0960004184    39.20803939999999       0.000145180817          -3.60551803
      0.000136474935   -9.452360770000002          0.162803621           38.3498108       0.000211598459           13.2189238         0.0926777322    39.83470990000001
        0.0960004184    39.20803939999999       0.000211598459           13.2189238            0.1613484           38.0242181       4.6789681e-005          -55.7607899
      0.000145180817          -3.60551803         0.0926777322    39.83470990000001       4.6789681e-005          -55.7607899          0.158266631           38.7658312

!
           150000000          0.193527627           22.5459332       0.000139035644          -32.5619255          0.116656794           25.3304412       0.000149699966          -24.4909772
      0.000139035644          -32.5619255          0.190565478           23.1394215       0.000212137308   -6.570139799999999          0.113644575           26.0491974
         0.116656794           25.3304412       0.000212137308   -6.570139799999999          0.188523973    22.79840340000001      5.35860007e-005   -86.04623530000001
      0.000149699966          -24.4909772          0.113644575           26.0491974      5.35860007e-005   -86.04623530000001          0.185871975           23.5508789

!
           160000000          0.212509747           7.70915873       0.000139818492          -54.6204599          0.129928594           11.4696768        0.00015326725          -44.4178016
      0.000139818492          -54.6204599          0.210006153    8.305478470000001       0.000210624821   -25.46678680000001          0.127298684           12.2342793
         0.129928594           11.4696768       0.000210624821   -25.46678680000001          0.207298799    7.977067309999998       5.9913209e-005          -114.213266
       0.00015326725          -44.4178016          0.127298684           12.2342793       5.9913209e-005          -114.213266          0.205169141    8.730781459999999

!
           170000000          0.222821434          -6.85403215       0.000139453533          -75.7417473          0.135613866          -2.26317898       0.000156518859          -63.5574993
      0.000139453533          -75.7417473          0.220814021          -6.26398616       0.000207920029   -43.56586699999999          0.133401779          -1.46796573
         0.135613866          -2.26317898       0.000207920029   -43.56586699999999          0.217388862   -6.557521600000001      6.58639518e-005          -140.740625
      0.000156518859          -63.5574993          0.133401779          -1.46796573      6.58639518e-005          -140.740625          0.215830875          -5.80851738

!
           180000000          0.224514117          -21.2715456       0.000138301236   -96.09226390000001          0.133742695          -15.8951199         0.0001597529          -82.1163407
      0.000138301236   -96.09226390000001           0.22301639          -20.6947324       0.000204475843   -60.96910700000001          0.131966333          -15.0730196
         0.133742695          -15.8951199       0.000204475843   -60.96910700000001          0.218837667          -20.9298404 7.157882090000001e-005          -166.077829
        0.0001597529          -82.1163407          0.131966333          -15.0730196 7.157882090000001e-005          -166.077829          0.217873853          -20.1903677

!
           190000000          0.217820469          -35.6594791       0.000136409034          -115.828743          0.124459209          -29.4553346        0.00016293153          -100.260666
      0.000136409034          -115.828743           0.21683233   -35.10483090000001       0.000200444335   -77.72039839999999          0.123127502          -28.6077699
         0.124459209          -29.4553346       0.000200444335   -77.72039839999999          0.211877554           -35.248877      7.71454552e-005           169.353592
       0.00016293153          -100.260666          0.123127502          -28.6077699      7.71454552e-005           169.353592          0.211512886          -34.5263978

!
           200000000           0.20317616          -50.0944575       0.000133547682          -135.029886           0.10808576          -42.8608884       0.000165779811          -118.059948
      0.000133547682          -135.029886          0.202683837          -49.5783934       0.000195908694   -93.75997580000001          0.107194705          -41.9954812
          0.10808576          -42.8608884       0.000195908694   -93.75997580000001          0.196952776   -49.57827950000001      8.25146337e-005           145.175191
      0.000165779811          -118.059948          0.107194705          -41.9954812      8.25146337e-005           145.175191           0.19717294          -48.8884771

!
           210000000           0.18137956   -64.58198280000001       0.000129340688          -153.618894         0.0853370668          -55.7014816        0.00016797479          -135.453583
      0.000129340688          -153.618894          0.181344092          -64.1368329       0.000191210715          -108.915338         0.0848531706          -54.8471915
        0.0853370668          -55.7014816       0.000191210715          -108.915338          0.174880103          -63.8994024       8.7438487e-005           121.083107
       0.00016797479          -135.453583         0.0848531706          -54.8471915       8.7438487e-005           121.083107          0.175637927           -63.275248

!
           220000000          0.153812606   -79.02156530000001       0.000123522412          -171.285647         0.0576444108          -66.4645364       0.000169422906          -152.255969
      0.000123522412          -171.285647          0.154149813          -78.7097282       0.000187302078          -122.970278         0.0574753001          -65.7186664
        0.0576444108          -66.4645364       0.000187302078          -122.970278          0.147070059           -78.063873      9.14597776e-005           96.8884949
      0.000169422906          -152.255969         0.0574753001          -65.7186664      9.14597776e-005           96.8884949          0.148263274          -77.5717871

!
           230000000          0.122584517   -93.16763880000001       0.000116323456            172.55696         0.0279715752          -66.9713726       0.000170554339          -168.225393
      0.000116323456            172.55696          0.123144591   -93.10790950000001       0.000185896754          -135.856875         0.0278870587          -66.7520273
        0.0279715752          -66.9713726       0.000185896754          -135.856875          0.115671715          -91.7220502      9.39887042e-005           72.5454043
      0.000170554339          -168.225393         0.0278870587          -66.7520273      9.39887042e-005           72.5454043          0.117120004          -91.4942358

!
           240000000  0.09044620719999999          -106.569686       0.000108883303           158.696267         0.0150844066    8.834385340000001       0.000172450909           176.792037
      0.000108883303           158.696267         0.0910030674          -106.993005       0.000189091003          -147.908141         0.0145418981           10.4794531
        0.0150844066    8.834385340000001       0.000189091003          -147.908141         0.0834958261          -104.167698      9.44604717e-005           48.1410002
      0.000172450909           176.792037         0.0145418981           10.4794531      9.44604717e-005           48.1410002         0.0849245859          -104.477087

!
           250000000         0.0604313984          -118.422978       0.000103461958           147.743176         0.0395209669    34.61834420000001       0.000176622485           162.699191
      0.000103461958           147.743176         0.0606836524          -119.806844       0.000198438094          -159.900358         0.0393397772           36.7476718
        0.0395209669    34.61834420000001       0.000198438094          -159.900358         0.0536976915          -113.856991      9.24901964e-005           23.8433873
      0.000176622485           162.699191         0.0393397772           36.7476718      9.24901964e-005           23.8433873         0.0547182625          -115.317048

!
           260000000         0.0353661849          -127.131535       0.000103065134           139.328686         0.0637166416           26.9052359       0.000184489496           149.097002
      0.000103065134           139.328686         0.0349348708          -130.548876       0.000214187407          -172.699281         0.0640153141           28.9251889
        0.0637166416           26.9052359       0.000214187407          -172.699281         0.0294675325          -116.596477 8.791862640000001e-005         -0.162921364
      0.000184489496           149.097002         0.0640153141           28.9251889 8.791862640000001e-005         -0.162921364         0.0294913598          -120.672822

!
           270000000         0.0174318676          -129.359649       0.000110186053           131.563185         0.0816711541           14.6526355       0.000196924991           135.422583
      0.000110186053           131.563185         0.0158503321          -137.197798       0.000235398525           173.157331          0.082633447           16.6670652
        0.0816711541           14.6526355       0.000235398525           173.157331         0.0143224374          -100.021813      8.07249142e-005          -23.7017261
      0.000196924991           135.422583          0.082633447           16.6670652      8.07249142e-005          -23.7017261          0.012401202          -107.181478

!
           280000000        0.00736873713          -124.051772       0.000125481984           122.081787  0.09169071870000001           1.24409323       0.000214142453           121.163548
      0.000125481984           122.081787        0.00437906254          -139.081808       0.000260610276           157.531394  0.09349052450000001           3.29876339
 0.09169071870000001           1.24409323       0.000260610276           157.531394         0.0101260934   -66.17097390000001      7.08950789e-005          -46.5316956
      0.000214142453           121.163548  0.09349052450000001           3.29876339      7.08950789e-005          -46.5316956 0.007610651390000001   -55.61135480000001

!
           290000000        0.00349423815          -172.660313       0.000147849009           109.647859  0.09303456680000001          -12.3892727       0.000235821657           105.975921
      0.000147849009           109.647859        0.00269349843           112.119316       0.000288286406           140.504763  0.09580909600000001          -10.2765171
 0.09303456680000001          -12.3892727       0.000288286406           140.504763 0.007012336190000001          -58.5309331      5.83799578e-005          -68.0629594
      0.000235821657           105.975921  0.09580909600000001          -10.2765171      5.83799578e-005          -68.0629594        0.00638295991   -29.58436580000001

!
           300000000         0.0124023126           129.550141        0.00017537504    94.25587970000001  0.08562377540000002          -25.6923199       0.000261174697           89.6835931
       0.00017537504    94.25587970000001          0.012018567           109.743078 0.0003167985129999999    122.2209490000001         0.0894532867          -23.5391674
 0.08562377540000002          -25.6923199 0.0003167985129999999    122.2209490000001 0.003255481580000001           141.724824       4.3304838e-005   -86.38245809999999
      0.000261174697           89.6835931         0.0894532867          -23.5391674       4.3304838e-005   -86.38245809999999        0.00380947627            78.109773

!
           310000000  0.03082859380000001           114.042454       0.000205815345           76.4125253         0.0700618324          -37.7739989       0.000288844374           72.2475769
      0.000205815345           76.4125253         0.0291717531           106.098454 0.0003441994990000001           102.838202         0.0749365749   -35.70435719999999
        0.0700618324          -37.7739989 0.0003441994990000001           102.838202         0.0214368729           116.577382      2.70751454e-005   -93.72674619999999
      0.000288844374           72.2475769         0.0749365749   -35.70435719999999      2.70751454e-005   -93.72674619999999         0.0198274433           106.345989

!
           320000000         0.0567563278           100.536781       0.000236583545    56.71198949999999         0.0479476463   -45.88107049999999       0.000316803356           53.7605553
      0.000236583545    56.71198949999999         0.0540038116    96.76909499999999       0.000368139301    82.55349560000001          0.053692038          -44.5415039
        0.0479476463   -45.88107049999999       0.000368139301    82.55349560000001         0.0472619735            102.44539      1.92054041e-005          -64.4305918
      0.000316803356           53.7605553          0.053692038          -44.5415039      1.92054041e-005          -64.4305918         0.0444605744    98.60627380000001

!
           330000000         0.0883667776           86.5074138        0.00026484374           35.7406476         0.0238663109          -35.0312146       0.000342541618           34.4549292
       0.00026484374           35.7406476         0.0848642599    84.67499460000001       0.000386172424           61.6375371         0.0294581722          -39.7734355
        0.0238663109          -35.0312146       0.000386172424           61.6375371  0.07883604880000002    88.05874970000001      3.39423549e-005          -44.7187726
      0.000342541618           34.4549292         0.0294581722          -39.7734355      3.39423549e-005          -44.7187726         0.0752396847           86.4937709

!
           340000000          0.123097349            71.985434       0.000287995268           14.0756336         0.0233439359           32.6656855       0.000363689318           14.6856104
      0.000287995268           14.0756336          0.119272123           71.1912616       0.000396449378           40.4372723         0.0212925243           18.3115713
        0.0233439359           32.6656855       0.000396449378           40.4372723           0.11359218           73.2973488       5.7120366e-005          -56.7928756
      0.000363689318           14.6856104         0.0212925243           18.3115713       5.7120366e-005          -56.7928756          0.109646859    72.83226500000001

!
           350000000          0.158023064           57.2284688       0.000304379925   -7.737523089999999         0.0496990006    45.97365210000001       0.000378844785          -5.13472896
      0.000304379925   -7.737523089999999          0.154324811           57.0323838       0.000398423437           19.3297237         0.0445777708           43.0220866
        0.0496990006    45.97365210000001       0.000398423437           19.3297237           0.14859703    58.37884799999999      8.10128634e-005          -77.2918359
      0.000378844785          -5.13472896         0.0445777708           43.0220866      8.10128634e-005          -77.2918359          0.144774526    58.51639089999999

!
           360000000          0.190383539    42.46774929999999       0.000313745726          -29.2395791         0.0770495209           38.8486027       0.000388078811          -24.6322225
      0.000313745726          -29.2395791          0.187210206    42.62321979999999 0.0003930592509999999          -1.35474195          0.071838638    38.43720070000001
        0.0770495209           38.8486027 0.0003930592509999999          -1.35474195           0.18107155    43.51147140000001       0.000103145577          -100.099306
      0.000388078811          -24.6322225          0.071838638    38.43720070000001       0.000103145577          -100.099306          0.177795821           43.9928619

!
           370000000          0.218007244           27.8568976       0.000317137279          -50.1116353          0.100512744           27.7722095 0.0003927602580000001          -43.5571348
      0.000317137279          -50.1116353          0.215654748            28.216064 0.0003823643070000001          -21.3992165  0.09585565510000001            28.188627
         0.100512744           27.7722095 0.0003823643070000001          -21.3992165           0.20881842           28.8353035       0.000122458687          -123.335382
0.0003927602580000001          -43.5571348  0.09585565510000001            28.188627       0.000122458687          -123.335382          0.206411369           29.5113815

!
           380000000           0.23946509           13.4613827       0.000316324642   -70.19781999999999          0.118448881           15.6240541 0.0003948669780000001   -61.82118310000001
      0.000316324642   -70.19781999999999          0.238121168            13.933651       0.000368576962   -40.72457470000001          0.114612761           16.3932361
         0.118448881           15.6240541       0.000368576962   -40.72457470000001          0.230382361           14.4084961        0.00013878177          -146.269023
0.0003948669780000001   -61.82118310000001          0.114612761           16.3932361        0.00013878177          -146.269023           0.22905413           15.1901082

!
           390000000          0.253971305  -0.7309898620000001       0.000313151225          -89.4911888          0.130158744    3.188707459999999 0.0003962472549999999          -79.4805825
      0.000313151225          -89.4911888          0.253742964          -0.20138992 0.0003534964389999999   -59.36745160000001          0.127273288    4.130368269999999
         0.130158744    3.188707459999999 0.0003534964389999999   -59.36745160000001          0.244956879          0.215958544       0.000152524107          -168.631425