! Tyco Electronics Strada Whisper System
! FEXT_H11112_G1112
!! 
!! SYSTEM DESCRIPTION: Daughtercard-Footprint-Connector-Footprint-Daughtercard
!! PCB DESCRIPTION: DC: 140mil, Megtron7N, upper layer route, 15mil stub, 6-6-6mil 12" traces
!! CONNECTOR DESCRIPTION: Next-Gen STRADA Whisper Direct-Plug Orthogonal Connector
!! MODEL DESCRIPTION: Tyco Electronics System 4-port S-parameter 
!! MODEL STATUS: Developmental
!! MODEL GEOMETRY: Channel Model
!! MODEL FREQUENCY RANGE: DC to 60 GHz in 10 MHz frequency steps
!! MODEL EDGE RATE LIMITATION: 8.3 ps (Using conservative 0.5/Fmax rule of thumb)
!! 
!! TIME-DOMAIN TRANSFORM CAUTIONS: 
!! 1.) Do not simulate transient edge rates faster than the number listed above.  Edge rates faster than this number 
!!     contain significant spectral content at frequencies above the model's highest frequency. 
!! 2.) Even when simulating edge rates that are slower than the number listed above, be aware that the best time 
!!     resolution possible with a direct iFFT is (1 / 2Fmax).  As a result, time resolution is typically not adequate 
!!     for most time-domain simulations unless tricks such as windowing are used to minimize leakage and aliasing. 
!! 3.) Because the model has a uniform frequency step, a direct iFFT will result in an impulse that that has a time 
!!     length given by either (1 / Fstep) or (1 / 2Fstep), depending on the transform being used.  Care has been taken 
!!     in selecting the frequency step to ensure a settled impulse response for the model.  Therefore, convolution with 
!!     the model's impulse response should present no issues.  However, if directly concatenating s-parameter models 
!!     in the frequency domain a user must either interpolate necessary interim frequencies or complete impulse response 
!!     zero-padding.  Impulse response zero-padding is more difficult, but more accurate. 
!! 
!! PORT DEFINITIONS: 
!! Port   1  ----->  TX Side	H11     G11     RX Side  <-----  Port   3
!! Port   2  ----->  TX Side	H12     G12     RX Side  <-----  Port   4
!! 
!!!!!!!!!!!!!!!!!!!!!!!!!!!!!!!!!!!!!!!!!!!!!!!!!!!!!!!!!!!!!!!!!!!!!!!!!!!!!!!!!!!!!!!!!!!!!!!!!!!!!!!!!!!!!!!!!!!!!!!!
! Touchstone data
! Created: 10-Dec-2018 by IdEM R2012 (8.0.5)
# Hz S MA R 50

!
                   0         0.0514105367                    0      3.34561258e-005                  180        0.00190984166                    0      2.75469741e-005                  180
     3.34561258e-005                  180         0.0512394071                    0      2.85918447e-005                  180        0.00178545058                    0
       0.00190984166                    0      2.85918447e-005                  180         0.0515213991                    0       3.2864273e-005                  180
     2.75469741e-005                  180        0.00178545058                    0       3.2864273e-005                  180         0.0514850134                    0

!
            10000000         0.0616659692           15.8109953      3.35690688e-005           157.428567         0.0336020913           70.6216743      2.94365046e-005           139.645364
     3.35690688e-005           157.428567         0.0615985558           16.1452615      3.53037357e-005           126.392435         0.0335301494           70.9652854
        0.0336020913           70.6216743      3.53037357e-005           126.392435         0.0619295343           16.0101787      3.21787435e-005           169.175007
     2.94365046e-005           139.645364         0.0335301494           70.9652854      3.21787435e-005           169.175007         0.0620128057           16.3205931

!
            20000000  0.08067217090000001            17.924155      3.42066282e-005           135.048609         0.0641311468    56.25374269999999      3.44247431e-005           104.628597
     3.42066282e-005           135.048609          0.080830234           18.4480104      5.02995064e-005            89.703554         0.0640529301    56.64127549999999
        0.0641311468    56.25374269999999      5.02995064e-005            89.703554         0.0812306255           18.1561476      3.07498797e-005           160.234813
     3.44247431e-005           104.628597         0.0640529301    56.64127549999999      3.07498797e-005           160.234813         0.0815829674            18.646112

!
            30000000  0.09858315690000001           11.6660592      3.54557914e-005           112.871451         0.0893260471           41.0298026      4.09548458e-005           75.4399873
     3.54557914e-005           112.871451  0.09906393650000001           12.3586743      6.81606451e-005           62.7961796          0.089342351           41.5343707
        0.0893260471           41.0298026      6.81606451e-005           62.7961796          0.099453024           11.8929564      2.95997258e-005           154.429074
     4.09548458e-005           75.4399873          0.089342351           41.5343707      2.95997258e-005           154.429074          0.100190514           12.5414744

!
            40000000          0.110608682           1.51623805      3.74091625e-005    90.76086650000001          0.107443884    25.74520740000001 4.797549929999999e-005           50.5286885
     3.74091625e-005    90.76086650000001          0.111540481           2.40508358      8.71437346e-005           40.2402879          0.107694017           26.3950039
         0.107443884    25.74520740000001      8.71437346e-005           40.2402879          0.111784604           1.74466565      3.00985685e-005           151.302293
4.797549929999999e-005           50.5286885          0.107694017           26.3950039      3.00985685e-005           151.302293          0.113050161    2.572838420000001

!
            50000000          0.114517721          -10.6050831      4.01104828e-005           68.4772583          0.117356173           10.5038189 5.500015899999999e-005           28.5320668
     4.01104828e-005           68.4772583            0.1160563          -9.46795068        0.00010683897           19.7795547          0.118007836           11.3236393
         0.117356173           10.5038189        0.00010683897           19.7795547          0.115994598          -10.3589102      3.32339739e-005           148.083266
5.500015899999999e-005           28.5320668          0.118007836           11.3236393      3.32339739e-005           148.083266          0.117957645   -9.310409510000001

!
            60000000           0.10926228          -23.9528163      4.35185621e-005           45.7666491          0.118402586           -4.7192812 6.189315940000001e-005           8.57094893
     4.35185621e-005           45.7666491          0.111579728          -22.4781661       0.000127211505          0.372380175           0.11964263          -3.70016969
         0.118402586           -4.7192812       0.000127211505          0.372380175          0.111038271          -23.6639602      3.90047544e-005           141.937006
6.189315940000001e-005           8.57094893           0.11964263          -3.70016969      3.90047544e-005           141.937006          0.113884614          -22.3266701

!
            70000000         0.0944619345          -38.3341192      4.74839522e-005           22.4332802          0.110311508   -19.94763560000001      6.87275178e-005   -9.915483380000001
     4.74839522e-005           22.4332802         0.0977274767          -36.3496347       0.000148251114          -18.5451692          0.112329258          -18.6924867
         0.110311508   -19.94763560000001       0.000148251114          -18.5451692         0.0965362708           -37.954932       4.6707374e-005           132.112455
     6.87275178e-005   -9.915483380000001          0.112329258          -18.6924867       4.6707374e-005           132.112455          0.100449184          -36.2001552

!
            80000000         0.0703083426   -54.01038820000001      5.17335071e-005          -1.62170081         0.0932772127          -35.0861321 7.571080740000001e-005          -27.3302666
     5.17335071e-005          -1.62170081  0.07464519560000001          -51.0893464       0.000169789795          -37.3058186  0.09623196670000001          -33.5484185
        0.0932772127          -35.0861321       0.000169789795          -37.3058186         0.0726740919          -53.4136999      5.55107422e-005           119.252827
7.571080740000001e-005          -27.3302666  0.09623196670000001          -33.5484185      5.55107422e-005           119.252827         0.0777933963          -50.9318506

!
            90000000         0.0377809327   -72.92067350000001      5.58709898e-005          -26.3836467         0.0681926871          -49.6411717      8.31200579e-005   -44.02472630000001
     5.58709898e-005          -26.3836467          0.043145174   -67.24660830000001       0.000191398983          -56.0918651         0.0721653085           -47.768633
        0.0681926871          -49.6411717       0.000191398983          -56.0918651         0.0403932733          -71.4798955 6.467644550000001e-005            104.24778
     8.31200579e-005   -44.02472630000001         0.0721653085           -47.768633 6.467644550000001e-005            104.24778         0.0467187425          -67.0025277

!
           100000000         0.0057838143           169.618514      5.94160165e-005          -51.7192484         0.0369759715          -61.1156731 9.120317609999999e-005          -60.3416091
     5.94160165e-005          -51.7192484 0.005323471089999999          -105.059668       0.000212388845          -74.9595113         0.0419242324   -59.06199139999999
        0.0369759715          -61.1156731       0.000212388845          -74.9595113        0.00483860337          -158.060182        7.357602e-005           87.8415842
9.120317609999999e-005          -60.3416091         0.0419242324   -59.06199139999999        7.357602e-005           87.8415842 0.009118372770000001          -94.9127062

!
           110000000         0.0455744582           90.9112544      6.18974109e-005          -77.3878995        0.00684023079          -8.34501758       0.000100063503          -76.5881649
     6.18974109e-005          -77.3878995         0.0376641706           88.3781765       0.000231953867   -93.85534560000001         0.0106324234            -35.27115
       0.00684023079          -8.34501758       0.000231953867   -93.85534560000001         0.0422191631           90.4108202 8.171375989999999e-005           70.6081947
      0.000100063503          -76.5881649         0.0106324234            -35.27115 8.171375989999999e-005           70.6081947         0.0333304376           89.3187618

!
           120000000         0.0890715334    71.75802210000001      6.29782949e-005           -103.08056         0.0349008957           64.7773376       0.000109606071   -92.97327540000001
     6.29782949e-005           -103.08056  0.08082162740000001    70.81877230000001       0.000249438757          -112.651205         0.0297500663           61.0152969
        0.0349008957           64.7773376       0.000249438757          -112.651205  0.08548833689999999           71.3417791      8.87768989e-005    52.97818039999999
      0.000109606071   -92.97327540000001         0.0297500663           61.0152969      8.87768989e-005    52.97818039999999  0.07614600370000001           71.2593459

!
           130000000          0.129652746           55.0156771      6.25469047e-005          -128.482449         0.0672674592           54.3608945       0.000119597933          -109.577284
     6.25469047e-005          -128.482449          0.121424468           54.6925027       0.000264583597          -131.199731         0.0619353316           53.7837918
        0.0672674592           54.3608945       0.000264583597          -131.199731          0.125849162           54.6724701      9.46506937e-005           35.2494228
      0.000119597933          -109.577284         0.0619353316           53.7837918      9.46506937e-005           35.2494228          0.116466927           55.0490607

!
           140000000          0.164499114           39.1617235      6.07159348e-005          -153.334842          0.094614737           40.7470483       0.000129789178          -126.384449
     6.07159348e-005          -153.334842          0.156660374             39.12368       0.000277589315          -149.389342  0.08968405960000001           40.9024009
         0.094614737           40.7470483       0.000277589315          -149.389342          0.160482886           38.8565903 9.936442020000001e-005           17.6002581
      0.000129789178          -126.384449  0.08968405960000001           40.9024009 9.936442020000001e-005           17.6002581           0.15146369             39.45984

!
           150000000          0.191839343           23.9069451      5.77386329e-005          -177.468771          0.115289868            26.760956       0.000139996814          -143.343026
     5.77386329e-005          -177.468771          0.184661992           23.9921963       0.000288980083          -167.173892          0.111047423           27.1695542
         0.115289868            26.760956       0.000288980083          -167.173892           0.18760777           23.6198701       0.000103002276          0.121423738
      0.000139996814          -143.343026          0.111047423           27.1695542       0.000103002276          0.121423738          0.179252124           24.3320167

!
           160000000          0.210801477           9.11296791      5.39014926e-005           159.197764          0.128581522           12.9093525       0.000150114576          -160.408841
     5.39014926e-005           159.197764           0.20444937           9.22283049       0.000299381585           175.429314          0.125177083           13.3834497
         0.128581522           12.9093525       0.000299381585           175.429314          0.206339221    8.831646169999999       0.000105634493          -17.1399385
      0.000150114576          -160.408841          0.125177083           13.3834497       0.000105634493          -17.1399385          0.198834163    9.582118919999997

!
           170000000          0.221113941   -5.345658739999999      4.94453655e-005           136.689734          0.134295668         -0.720555504       0.000160076373          -177.560424
     4.94453655e-005           136.689734          0.215666793          -5.28503396       0.000309343687           158.361024          0.131791656         -0.291662829
         0.134295668         -0.720555504       0.000309343687           158.361024          0.216394988   -5.629566520000001       0.000107295242          -34.1384741
      0.000160076373          -177.560424          0.131791656         -0.291662829       0.000107295242          -34.1384741          0.209838695          -4.89085949

!
           180000000          0.222831408          -19.5903092      4.45294165e-005           115.022622          0.132473016           -14.145003       0.000169809835           165.204419
     4.45294165e-005           115.022622          0.218312196          -19.6500904       0.000319255566           141.545297          0.130877559          -13.8611895
         0.132473016           -14.145003       0.000319255566           141.545297          0.217823338          -19.8828078       0.000108005595          -50.7988824
      0.000169809835           165.204419          0.130877559          -13.8611895       0.000108005595          -50.7988824          0.212253895          -19.2020079

!
           190000000            0.2161959   -33.71767930000001      3.92296521e-005    94.27416710000001          0.123277135          -27.3489228       0.000179198618            147.87965
     3.92296521e-005    94.27416710000001          0.212583019          -33.9860404       0.000329337085           124.909484          0.122553179          -27.3462246
         0.123277135          -27.3489228       0.000329337085           124.909484          0.210865541   -34.02284350000001       0.000107832532          -66.9973088
      0.000179198618            147.87965          0.122553179          -27.3462246       0.000107832532          -66.9973088          0.206274899          -33.4573326

!
           200000000          0.201661154   -47.76754520000001      3.35659555e-005           74.7171493           0.10706872          -40.1441967       0.000188061522           130.464186
     3.35659555e-005           74.7171493          0.198876762          -48.3740575       0.000339676184           108.396604          0.107109373          -40.6662099
          0.10706872          -40.1441967       0.000339676184           108.396604          0.195981103   -48.08659920000001       0.000106974405          -82.5625234
      0.000188061522           130.464186          0.107109373          -40.6662099       0.000106974405          -82.5625234          0.192305607          -47.7238968

!
           210000000          0.180056778          -61.6793136       2.7570066e-005           57.1148697         0.0846489087          -51.8589603       0.000196156527           112.974559
      2.7570066e-005           57.1148697          0.177929496           -62.832064       0.000350292666           91.9703461          0.085201519          -53.4289098
        0.0846489087          -51.8589603       0.000350292666           91.9703461          0.174012103   -62.00699590000001       0.000105850494   -97.31295780000001
      0.000196156527           112.974559          0.085201519          -53.4289098       0.000105850494   -97.31295780000001          0.171098023   -61.99332600000001

!
           220000000          0.152817273          -75.2316692      2.14468452e-005    43.45491910000001  0.05770440599999999          -60.1943304       0.000203217119    95.45386550000001
     2.14468452e-005    43.45491910000001          0.151024604          -77.2809556 0.0003612138370000001           75.6126268         0.0581596585   -64.19126970000001
 0.05770440599999999          -60.1943304 0.0003612138370000001           75.6126268          0.146411373   -75.54516940000001       0.000105140727          -111.148069
      0.000203217119    95.45386550000001         0.0581596585   -64.19126970000001       0.000105140727          -111.148069          0.143961416          -76.1341176

!
           230000000          0.122142473          -87.9479113      1.60082802e-005    38.56937900000001         0.0303936255          -54.2752926       0.000209016662    77.97319950000001
     1.60082802e-005    38.56937900000001          0.120144436   -91.50549599999999       0.000372537368    59.31414199999999         0.0287669173          -65.2829581
        0.0303936255          -54.2752926       0.000372537368    59.31414199999999            0.1154025   -88.17254509999999       0.000105694413           -124.17992
      0.000209016662    77.97319950000001         0.0287669173          -65.2829581       0.000105694413           -124.17992          0.112915436   -89.81548789999999

!
           240000000         0.0909502138   -98.91284140000001      1.36214186e-005           48.1840146         0.0223200937           3.15518906       0.000213438118           60.6242184
     1.36214186e-005           48.1840146         0.0879163669          -105.087978       0.000384449527           43.0617427         0.0146948427            8.5503816
        0.0223200937           3.15518906       0.000384449527           43.0617427         0.0839416606          -98.8064703       0.000108270676           -136.81149
      0.000213438118           60.6242184         0.0146948427            8.5503816       0.000108270676           -136.81149         0.0806464313          -102.325307

!
           250000000         0.0626051401          -106.380127      1.68467259e-005    58.18939630000001         0.0440521194           25.5228819       0.000216521005           43.5062616
     1.68467259e-005    58.18939630000001  0.05729640460000001          -117.206994       0.000397189096           26.8294222         0.0392117498           37.1573347
        0.0440521194           25.5228819       0.000397189096           26.8294222         0.0555053004          -105.111828       0.000113225472          -149.637103
      0.000216521005           43.5062616         0.0392117498           37.1573347       0.000113225472          -149.637103         0.0502443661          -111.912454

!
           260000000         0.0405633626          -107.288626      2.40903501e-005           53.3280047         0.0671760037            20.036822       0.000218475363           26.7135289
     2.40903501e-005           53.3280047         0.0311276034          -125.762939        0.00041098617           10.5768954         0.0643689356           29.7978648
        0.0671760037            20.036822        0.00041098617           10.5768954         0.0339887908          -102.081985       0.000120371946          -163.194254
      0.000218475363           26.7135289         0.0643689356           29.7978648       0.000120371946          -163.194254         0.0250715227          -112.387902

!
           270000000         0.0275154452          -99.9004826       3.3108892e-005    38.95765200000001           0.08458994    8.696310540000001       0.000219675573           10.3245999
      3.3108892e-005    38.95765200000001         0.0119740953          -121.537694       0.000426011217          -5.74680166         0.0837392877           17.6884255
          0.08458994    8.696310540000001       0.000426011217          -5.74680166         0.0231099064          -85.9693967       0.000129103637          -177.776535
      0.000219675573           10.3245999         0.0837392877           17.6884255       0.000129103637          -177.776535         0.0110806407   -74.98033090000001

!
           280000000          0.022031165   -94.58168430000001      4.29628366e-005           20.0926918         0.0942313444          -4.51724672       0.000220652187           -5.6087859
     4.29628366e-005           20.0926918 0.004688886010000001   -50.76976300000001 0.0004423364059999999   -22.19929490000001         0.0955380894    4.360673290000001
        0.0942313444          -4.51724672 0.0004423364059999999   -22.19929490000001         0.0204558199          -74.1856595       0.000138629436           166.570024
      0.000220652187           -5.6087859         0.0955380894    4.360673290000001       0.000138629436           166.570024         0.0136435974          -29.8740326

!
           290000000          0.018315524          -108.480876      5.32580288e-005            -1.143509  0.09522692889999999          -18.5023914       0.000222083297          -21.0799938
     5.32580288e-005            -1.143509 0.005833932269999999          -3.21881861       0.000459887022          -38.8412668          0.098930331   -9.262199900000001
 0.09522692889999999          -18.5023914       0.000459887022          -38.8412668         0.0171931336   -83.25590560000001       0.000148137424           149.947222
      0.000222083297          -21.0799938          0.098930331   -9.262199900000001       0.000148137424           149.947222         0.0149303125          -23.8893902

!
           300000000         0.0169001478          -155.466162      6.37289615e-005           -23.863719          0.087400559          -32.8152826        0.00022475503          -36.1563199
     6.37289615e-005           -23.863719        0.00633585344           66.5679574        0.00047837147          -55.7305733         0.0937059883          -22.7150274
         0.087400559          -32.8152826        0.00047837147          -55.7305733         0.0116112435          -130.762722       0.000156846602           132.518169
       0.00022475503          -36.1563199         0.0937059883          -22.7150274       0.000156846602           132.518169         0.0088287933          -14.0295848

!
           310000000         0.0285831949           151.762931 7.407455510000001e-005          -47.6526631         0.0712062378          -47.0874443       0.000229432464   -51.00780450000001
7.407455510000001e-005          -47.6526631         0.0198713293           98.7715844        0.00049720865          -72.9114118         0.0802510731          -35.4004097
        0.0712062378          -47.0874443        0.00049720865          -72.9114118         0.0204182783             151.6219       0.000164015468           114.473614
      0.000229432464   -51.00780450000001         0.0802510731          -35.4004097       0.000164015468           114.473614         0.0100089972           86.7446849

!
           320000000         0.0526165874           121.657171      8.38944988e-005   -72.25932930000001         0.0478202107   -60.45003800000001       0.000236607233          -65.9032998
     8.38944988e-005   -72.25932930000001         0.0430430952           95.7387907       0.000515504353   -90.39864059999999         0.0597288665          -45.7767301
        0.0478202107   -60.45003800000001       0.000515504353   -90.39864059999999         0.0446319625           118.822926       0.000168992807           96.0336535
      0.000236607233          -65.9032998         0.0597288665          -45.7767301       0.000168992807           96.0336535         0.0324663121    96.48142800000001

!
           330000000  0.08374022499999999           100.552317       9.2702366e-005          -97.4614619           0.01939146          -67.1483461       0.000246211335          -81.1408215
      9.2702366e-005          -97.4614619  0.07283552319999999           85.5236342       0.000532147929           -108.16196         0.0348397245          -47.4491518
          0.01939146          -67.1483461       0.000532147929           -108.16196  0.07588772720000001           98.2230617        0.00017134435           77.4515497
      0.000246211335          -81.1408215         0.0348397245          -47.4491518        0.00017134435           77.4515497  0.06215794500000001    87.13022839999999

!
           340000000           0.11843408    82.46136989999999        0.00010001673          -123.010129         0.0137242809           61.9821187       0.000257523411   -96.93282550000001
       0.00010001673          -123.010129          0.106696211           72.8195829        0.00054606955          -126.119451         0.0179108182           -1.2284033
        0.0137242809           61.9821187        0.00054606955          -126.119451          0.110620332           80.6270851       0.000170996392    58.99371490000001
      0.000257523411   -96.93282550000001         0.0179108182           -1.2284033       0.000170996392    58.99371490000001         0.0960129201    74.39335180000001

!
           350000000          0.153512126           65.6935146       0.000105501796          -148.626714         0.0446402268           61.4169066       0.000269423332          -113.328746
      0.000105501796          -148.626714           0.14174405           59.0459215       0.000556589919           -144.14991         0.0367942584    42.29500219999999
        0.0446402268           61.4169066       0.000556589919           -144.14991          0.145701464           64.1897065        0.00016827063    40.89382599999999
      0.000269423332          -113.328746         0.0367942584    42.29500219999999        0.00016827063    40.89382599999999          0.131122614           60.4941606

!
           360000000          0.186123486    49.73480479999999       0.000109085291          -174.035546         0.0734583227           49.1539477       0.000280852523          -130.233154
      0.000109085291          -174.035546           0.17512698           44.8430707       0.000563675579          -162.123985         0.0642653347           40.5006895
        0.0734583227           49.1539477       0.000563675579          -162.123985          0.178297394    48.44374520000001       0.000163738981           23.3087013
      0.000280852523          -130.233154         0.0642653347           40.5006895       0.000163738981           23.3087013          0.164622439    46.18495510000001

!
           370000000          0.214058664           34.4082591       0.000110982879           160.991231         0.0977755125           35.8940351 0.0002911545330000001          -147.489706
      0.000110982879           160.991231          0.204463238    30.55175419999999       0.000567930864          -179.940503         0.0891233456    30.80590640000001
        0.0977755125           35.8940351       0.000567930864          -179.940503          0.206193497           33.2529613       0.000157981797    6.311775099999999
0.0002911545330000001          -147.489706         0.0891233456    30.80590640000001       0.000157981797    6.311775099999999          0.194108751            31.822474

!
           380000000          0.235872252           19.6186462       0.000111620889           136.599767           0.11636717           22.7040609        0.00030012055          -164.960902
      0.000111620889           136.599767          0.228081611           16.3414545       0.000570335912           162.449761            0.1089645           19.1606617
          0.11636717           22.7040609       0.000570335912           162.449761          0.227930673           18.5472841       0.000151415961          -10.0662547
       0.00030012055          -164.960902            0.1089645           19.1606617       0.000151415961          -10.0662547           0.21788339           17.5762788

!
           390000000          0.250774869           5.27410685       0.000111511347           112.841562          0.128665446    9.825235220000002       0.000307819729           177.434309
      0.000111511347           112.841562          0.244999008           2.26367332       0.000571898636            145.04102          0.122807879           6.95143771
         0.128665446    9.825235220000002       0.000571898636            145.04102          0.242705336    4.249703660000001       0.000144283814   -25.77282320000001