! Tyco Electronics Strada Whisper System
! FEXT_G1415_G1112
!! 
!! SYSTEM DESCRIPTION: Daughtercard-Footprint-Connector-Footprint-Daughtercard
!! PCB DESCRIPTION: DC: 140mil, Megtron7N, upper layer route, 15mil stub, 6-6-6mil 12" traces
!! CONNECTOR DESCRIPTION: Next-Gen STRADA Whisper Direct-Plug Orthogonal Connector
!! MODEL DESCRIPTION: Tyco Electronics System 4-port S-parameter 
!! MODEL STATUS: Developmental
!! MODEL GEOMETRY: Channel Model
!! MODEL FREQUENCY RANGE: DC to 60 GHz in 10 MHz frequency steps
!! MODEL EDGE RATE LIMITATION: 8.3 ps (Using conservative 0.5/Fmax rule of thumb)
!! 
!! TIME-DOMAIN TRANSFORM CAUTIONS: 
!! 1.) Do not simulate transient edge rates faster than the number listed above.  Edge rates faster than this number 
!!     contain significant spectral content at frequencies above the model's highest frequency. 
!! 2.) Even when simulating edge rates that are slower than the number listed above, be aware that the best time 
!!     resolution possible with a direct iFFT is (1 / 2Fmax).  As a result, time resolution is typically not adequate 
!!     for most time-domain simulations unless tricks such as windowing are used to minimize leakage and aliasing. 
!! 3.) Because the model has a uniform frequency step, a direct iFFT will result in an impulse that that has a time 
!!     length given by either (1 / Fstep) or (1 / 2Fstep), depending on the transform being used.  Care has been taken 
!!     in selecting the frequency step to ensure a settled impulse response for the model.  Therefore, convolution with 
!!     the model's impulse response should present no issues.  However, if directly concatenating s-parameter models 
!!     in the frequency domain a user must either interpolate necessary interim frequencies or complete impulse response 
!!     zero-padding.  Impulse response zero-padding is more difficult, but more accurate. 
!! 
!! PORT DEFINITIONS: 
!! Port   1  ----->  TX Side	G14     G11     RX Side  <-----  Port   3
!! Port   2  ----->  TX Side	G15     G12     RX Side  <-----  Port   4
!! 
!!!!!!!!!!!!!!!!!!!!!!!!!!!!!!!!!!!!!!!!!!!!!!!!!!!!!!!!!!!!!!!!!!!!!!!!!!!!!!!!!!!!!!!!!!!!!!!!!!!!!!!!!!!!!!!!!!!!!!!!
! Touchstone data
! Created: 10-Dec-2018 by IdEM R2012 (8.0.5)
# Hz S MA R 50

!
                   0         0.0514105367                    0      5.00492668e-006                  180        0.00190984166                    0      1.48905037e-005                  180
     5.00492668e-006                  180         0.0528248989                    0      2.24926656e-006                  180        0.00207229174                    0
       0.00190984166                    0      2.24926656e-006                  180         0.0515213991                    0      4.95751839e-006                  180
     1.48905037e-005                  180        0.00207229174                    0      4.95751839e-006                  180           0.05321576                    0

!
            10000000         0.0616659692           15.8109953      7.93707207e-006           112.763954         0.0336020913           70.6216743      1.93829995e-005          -157.746597
     7.93707207e-006           112.763954         0.0631052721           15.5294388        6.301269e-006          -125.702167         0.0326009628           70.2948734
        0.0336020913           70.6216743        6.301269e-006          -125.702167         0.0619295343           16.0101787      1.70099743e-005          -124.165031
     1.93829995e-005          -157.746597         0.0326009628           70.2948734      1.70099743e-005          -124.165031  0.06365381370000001           15.6530461

!
            20000000  0.08067217090000001            17.924155      1.33536005e-005           79.4708117         0.0641311468    56.25374269999999      2.86290531e-005          -156.467708
     1.33536005e-005           79.4708117         0.0822793017           17.6685243      1.21795146e-005          -130.469501  0.06212397290000001    56.17350680000001
        0.0641311468    56.25374269999999      1.21795146e-005          -130.469501         0.0812306255           18.1561476      3.28290444e-005           -133.08264
     2.86290531e-005          -156.467708  0.06212397290000001    56.17350680000001      3.28290444e-005           -133.08264  0.08316108480000001           17.8123495

!
            30000000  0.09858315690000001           11.6660592      1.93567327e-005           56.0844698         0.0893260471           41.0298026      3.87961353e-005          -164.913571
     1.93567327e-005           56.0844698          0.100481025           11.5002851      1.85803681e-005          -142.165793  0.08633172460000001           41.0824049
        0.0893260471           41.0298026      1.85803681e-005          -142.165793          0.099453024           11.8929564      4.88371336e-005          -147.271386
     3.87961353e-005          -164.913571  0.08633172460000001           41.0824049      4.88371336e-005          -147.271386          0.101747024           11.6347277

!
            40000000          0.110608682           1.51623805      2.56411032e-005           35.8080804          0.107443884    25.74520740000001 4.878716179999999e-005          -176.924944
     2.56411032e-005           35.8080804          0.112853498            1.4364763      2.55737652e-005          -156.155095          0.103474623           25.9197746
         0.107443884    25.74520740000001      2.55737652e-005          -156.155095          0.111784604           1.74466565      6.50324529e-005           -162.78953
4.878716179999999e-005          -176.924944          0.103474623           25.9197746      6.50324529e-005           -162.78953          0.114524761           1.55917157

!
            50000000          0.114517721          -10.6050831      3.21327361e-005           16.7521453          0.117356173           10.5038189      5.83592699e-005            169.63114
     3.21327361e-005           16.7521453          0.117117504          -10.5990206      3.32539107e-005          -171.532197          0.112415608           10.8232636
         0.117356173           10.5038189      3.32539107e-005          -171.532197          0.115994598          -10.3589102      8.16238442e-005          -178.917348
     5.83592699e-005            169.63114          0.112415608           10.8232636      8.16238442e-005          -178.917348          0.119211701          -10.4874411

!
            60000000           0.10926228          -23.9528163 3.879176120000001e-005          -1.78732868          0.118402586           -4.7192812 6.753195149999999e-005           155.539842
3.879176120000001e-005          -1.78732868          0.112191579          -23.8353166      4.16432139e-005           171.955766          0.112487427          -4.19752756
         0.118402586           -4.7192812      4.16432139e-005           171.955766          0.111038271          -23.6639602      9.88000833e-005           164.467524
6.753195149999999e-005           155.539842          0.112487427          -4.19752756      9.88000833e-005           164.467524          0.114727934          -23.7359828

!
            70000000         0.0944619345          -38.3341192 4.557055439999999e-005          -20.1296592          0.110311508   -19.94763560000001      7.63729911e-005           141.092664
4.557055439999999e-005          -20.1296592         0.0976747625   -38.01983780000001       5.0638209e-005           154.405749          0.103421292          -19.1015057
         0.110311508   -19.94763560000001       5.0638209e-005           154.405749         0.0965362708           -37.954932       0.000116571673           147.330463
     7.63729911e-005           141.092664          0.103421292          -19.1015057       0.000116571673           147.330463          0.100671975          -37.9365328

!
            80000000         0.0703083426   -54.01038820000001      5.23991483e-005          -38.4358863         0.0932772127          -35.0861321      8.48857372e-005           126.401589
     5.23991483e-005          -38.4358863  0.07375000399999999          -53.2345051      5.99575619e-005           135.904092  0.08543893750000001          -33.6282841
        0.0932772127          -35.0861321      5.99575619e-005           135.904092         0.0726740919          -53.4136999       0.000134634906           129.629553
     8.48857372e-005           126.401589  0.08543893750000001          -33.6282841       0.000134634906           129.629553  0.07722068090000001          -53.1698418

!
            90000000         0.0377809327   -72.92067350000001      5.91786543e-005          -56.7888625         0.0681926871          -49.6411717      9.29667127e-005           111.552582
     5.91786543e-005          -56.7888625         0.0413597848   -70.44260970000001      6.91174916e-005           116.598625  0.05952747189999999          -46.6943243
        0.0681926871          -49.6411717      6.91174916e-005           116.598625         0.0403932733          -71.4798955       0.000152306375           111.395494
     9.29667127e-005           111.552582  0.05952747189999999          -46.6943243       0.000152306375           111.395494         0.0453032728   -70.31504700000001

!
           100000000         0.0057838143           169.618514      6.57744643e-005          -75.2250451         0.0369759715          -61.1156731       0.000100463342    96.68751450000001
     6.57744643e-005          -75.2250451        0.00404486925          -139.492586 7.748693670000001e-005    96.73904770000002         0.0280997595           -51.677614
        0.0369759715          -61.1156731 7.748693670000001e-005    96.73904770000002        0.00483860337          -158.060182       0.000168611758            92.775076
      0.000100463342    96.68751450000001         0.0280997595           -51.677614       0.000168611758            92.775076        0.00756439879          -111.856489

!
           110000000         0.0455744582           90.9112544      7.20101788e-005   -93.73924670000001        0.00684023079          -8.34501758       0.000107340264           82.0125937
     7.20101788e-005   -93.73924670000001         0.0408776058           87.8238382      8.44538043e-005           76.6745569         0.0140371923           44.8190371
       0.00684023079          -8.34501758      8.44538043e-005           76.6745569         0.0422191631           90.4108202       0.000182577638    74.03080230000001
      0.000107340264           82.0125937         0.0140371923           44.8190371       0.000182577638    74.03080230000001         0.0361826678           89.4554431

!
           120000000         0.0890715334    71.75802210000001 7.768396169999999e-005          -112.274217         0.0349008957           64.7773376       0.000113860627           67.7230117
7.768396169999999e-005          -112.274217         0.0839391821    69.51877690000001      8.96448556e-005    56.79806430000001          0.047018502    62.25470229999999
        0.0349008957           64.7773376      8.96448556e-005    56.79806430000001  0.08548833689999999           71.3417791       0.000193630392    55.48904490000001
      0.000113860627           67.7230117          0.047018502    62.25470229999999       0.000193630392    55.48904490000001         0.0788673496           70.2978583

!
           130000000          0.129652746           55.0156771      8.26264452e-005          -130.721642         0.0672674592           54.3608945       0.000120615023    53.88703850000001
     8.26264452e-005          -130.721642          0.123906163            53.106472 9.306035249999999e-005           37.4579789         0.0798058749           51.5268101
        0.0672674592           54.3608945 9.306035249999999e-005           37.4579789          0.125849162           54.6724701       0.000201866713           37.4548407
      0.000120615023    53.88703850000001         0.0798058749           51.5268101       0.000201866713           37.4548407          0.118547855    53.71269160000001

!
           140000000          0.164499114           39.1617235 8.677053420000002e-005          -148.953905          0.094614737           40.7470483       0.000128336774           40.3833443
8.677053420000002e-005          -148.953905          0.158037011           37.4205381 9.503165390000002e-005             18.88572          0.107535738    38.01617690000001
         0.094614737           40.7470483 9.503165390000002e-005             18.88572          0.160482886           38.8565903       0.000208025582           20.1346266
      0.000128336774           40.3833443          0.107535738    38.01617690000001       0.000208025582           20.1346266          0.152447021           37.9734589

!
           150000000          0.191839343           23.9069451      9.01738195e-005          -166.870254          0.115289868            26.760956       0.000137645309           26.9476798
     9.01738195e-005          -166.870254          0.184622355           22.2618178      9.60552782e-005           1.17479774          0.128555645            24.007785
         0.115289868            26.760956      9.60552782e-005           1.17479774           0.18760777           23.6198701       0.000213226751           3.59921765
      0.000137645309           26.9476798          0.128555645            24.007785       0.000213226751           3.59921765          0.178832771           22.8075119

!
           160000000          0.210801477           9.11296791      9.29764618e-005           175.575242          0.128581522           12.9093525       0.000148900141           13.2831748
     9.29764618e-005           175.575242          0.202843112    7.517993350000002      9.66316998e-005          -15.6925146           0.14216748           9.99174889
         0.128581522           12.9093525      9.66316998e-005          -15.6925146          0.206339221    8.831646169999999       0.000218675761          -12.2122385
      0.000148900141           13.2831748           0.14216748           9.99174889       0.000218675761          -12.2122385           0.19686451    8.085079350000001

!
           170000000          0.221113941   -5.345658739999999      9.53321217e-005           158.377338          0.134295668         -0.720555504       0.000162198395  -0.8537578949999999
     9.53321217e-005           158.377338          0.212464998          -6.93248412 9.718543659999999e-005          -31.8013388          0.148186327   -3.958067310000001
         0.134295668         -0.720555504 9.718543659999999e-005          -31.8013388          0.216394988   -5.629566520000001        0.00022546405   -27.46665139999999
      0.000162198395  -0.8537578949999999          0.148186327   -3.958067310000001        0.00022546405   -27.46665139999999          0.206290837   -6.318148550000001

!
           180000000          0.222831408          -19.5903092      9.73566004e-005           141.505585          0.132473016           -14.145003       0.000177423336           -15.627489
     9.73566004e-005           141.505585          0.213561918          -21.2184206       9.8060778e-005          -47.2714928          0.146651551          -17.9024715
         0.132473016           -14.145003       9.8060778e-005          -47.2714928          0.217823338          -19.8828078       0.000234461644          -42.4054248
      0.000177423336           -15.627489          0.146651551          -17.9024715       0.000234461644          -42.4054248           0.20717569           -20.526523

!
           190000000            0.2161959   -33.71767930000001 9.911632969999999e-005           124.936734          0.123277135          -27.3489228       0.000194257158          -31.1332095
9.911632969999999e-005           124.936734          0.206376782          -35.4532245      9.95487518e-005          -62.2477803          0.137710335   -31.92989600000001
         0.123277135          -27.3489228      9.95487518e-005          -62.2477803          0.210865541   -34.02284350000001       0.000246240792   -57.30953390000001
      0.000194257158          -31.1332095          0.137710335   -31.92989600000001       0.000246240792   -57.30953390000001          0.199761038   -34.64203460000001

!
           200000000          0.201661154   -47.76754520000001        0.00010066073           108.679384           0.10706872          -40.1441967       0.000212141127   -47.40851330000001
       0.00010066073           108.679384          0.191345365          -49.7045357       0.000101900782          -76.9074287          0.121676055          -46.0877549
          0.10706872          -40.1441967       0.000101900782          -76.9074287          0.195981103   -48.08659920000001       0.000260987706   -72.45685520000001
      0.000212141127   -47.40851330000001          0.121676055          -46.0877549       0.000260987706   -72.45685520000001          0.184492486   -48.71015270000001

!
           210000000          0.180056778          -61.6793136       0.000102090196           92.7763015         0.0846489087          -51.8589603       0.000230229191   -64.43108839999999
      0.000102090196           92.7763015          0.169258973   -63.95585239999999       0.000105303069          -91.4635408  0.09921968520000001          -60.3039502
        0.0846489087          -51.8589603       0.000105303069          -91.4635408          0.174012103   -62.00699590000001       0.000278416212          -88.0714967
      0.000230229191   -64.43108839999999  0.09921968520000001          -60.3039502       0.000278416212          -88.0714967          0.162184129   -62.67135029999999

!
           220000000          0.152817273          -75.2316692       0.000103627715           77.2697493  0.05770440599999999          -60.1943304       0.000247418071          -82.1070416
      0.000103627715           77.2697493          0.141490866          -78.0549472       0.000109822874          -106.139644         0.0716076823   -74.20864709999999
 0.05770440599999999          -60.1943304       0.000109822874          -106.139644          0.146411373   -75.54516940000001       0.000297756856           -104.27628
      0.000247418071          -82.1070416         0.0716076823   -74.20864709999999       0.000297756856           -104.27628           0.13424902          -76.2838703

!
           230000000          0.122142473          -87.9479113       0.000105628096           62.1323617         0.0303936255          -54.2752926       0.000262525754          -100.266302
      0.000105628096           62.1323617          0.110151758          -91.6292735       0.000115382767          -121.115146  0.04087415269999999          -86.2640741
        0.0303936255          -54.2752926       0.000115382767          -121.115146            0.1154025   -88.17254509999999       0.000317911816          -121.069003
      0.000262525754          -100.266302  0.04087415269999999          -86.2640741       0.000317911816          -121.069003          0.102866741   -88.96660660000001

!
           240000000         0.0909502138   -98.91284140000001       0.000108466365           47.2098884         0.0223200937           3.15518906       0.000274599337          -118.682027
      0.000108466365           47.2098884  0.07803063289999999          -103.882052       0.000121817448          -136.483095         0.0104930642   -78.10960470000001
        0.0223200937           3.15518906       0.000121817448          -136.483095         0.0839416606          -98.8064703       0.000337786647          -138.340059
      0.000274599337          -118.682027         0.0104930642   -78.10960470000001       0.000337786647          -138.340059  0.07097146849999998   -99.35230940000001

!
           250000000         0.0626051401          -106.380127       0.000112349508           32.2464252         0.0440521194           25.5228819       0.000283200273          -137.116951
      0.000112349508           32.2464252         0.0483119059          -112.877952        0.00012898603          -152.264299         0.0211091454           40.4411059
        0.0440521194           25.5228819        0.00012898603          -152.264299         0.0555053004          -105.111828       0.000356655513          -155.929583
      0.000283200273          -137.116951         0.0211091454           40.4411059       0.000356655513          -155.929583         0.0421858966          -103.574412

!
           260000000         0.0405633626          -107.288626       0.000117206062           16.9951984         0.0671760037            20.036822       0.000288478384          -155.378774
      0.000117206062           16.9951984         0.0244350137          -112.211045       0.000136835524          -168.466897          0.045348311    33.48241639999999
        0.0671760037            20.036822       0.000136835524          -168.466897         0.0339887908          -102.081985       0.000374335622          -173.698034
      0.000288478384          -155.378774          0.045348311    33.48241639999999       0.000374335622          -173.698034         0.0218384137          -88.3732002

!
           270000000         0.0275154452          -99.9004826       0.000122750021           1.31927577           0.08458994    8.696310540000001       0.000290981837          -173.357481
      0.000122750021           1.31927577         0.0116636108          -79.0760973       0.000145348472           174.863953         0.0631461322            20.909124
          0.08458994    8.696310540000001       0.000145348472           174.863953         0.0231099064          -85.9693967       0.000391058539           168.423722
      0.000290981837          -173.357481         0.0631461322            20.909124       0.000391058539           168.423722         0.0182911183          -48.1475259

!
           280000000          0.022031165   -94.58168430000001        0.00012864365           -14.794906         0.0942313444          -4.51724672       0.000291328756           168.971745
       0.00012864365           -14.794906         0.0120652701           -40.149032       0.000154411638             157.6428  0.07300355190000001    7.756701410000001
        0.0942313444          -4.51724672       0.000154411638             157.6428         0.0204558199          -74.1856595       0.000407126506           150.423594
      0.000291328756           168.971745  0.07300355190000001    7.756701410000001       0.000407126506           150.423594         0.0225366431   -34.98141960000001

!
           290000000          0.018315524          -108.480876       0.000134627322          -31.2904134  0.09522692889999999          -18.5023914       0.000289917988           151.578349
      0.000134627322          -31.2904134         0.0105634022          -32.1852224        0.00016368723           139.778684         0.0743223517          -4.88557158
 0.09522692889999999          -18.5023914        0.00016368723           139.778684         0.0171931336   -83.25590560000001 0.0004225355910000001           132.233205
      0.000289917988           151.578349         0.0743223517          -4.88557158 0.0004225355910000001           132.233205         0.0213520584          -39.1915715

!
           300000000         0.0169001478          -155.466162       0.000140560768   -48.10212540000001          0.087400559          -32.8152826        0.00028679297           134.427601
      0.000140560768   -48.10212540000001        0.00303260312           26.3376301       0.000172542247           121.222004  0.06724951799999999          -15.9709622
         0.087400559          -32.8152826       0.000172542247           121.222004         0.0116112435          -130.762722       0.000436710846           113.773679
       0.00028679297           134.427601  0.06724951799999999          -15.9709622       0.000436710846           113.773679         0.0117594486          -48.0208012

!
           310000000         0.0285831949           151.762931       0.000146383976   -65.19835670000001         0.0712062378          -47.0874443       0.000281707564           117.539961
      0.000146383976   -65.19835670000001          0.018035052           103.935041       0.000180070051           102.006775         0.0529781488          -23.0021942
        0.0712062378          -47.0874443       0.000180070051           102.006775         0.0204182783             151.6219        0.00044844563           95.0072424
      0.000281707564           117.539961         0.0529781488          -23.0021942        0.00044844563           95.0072424        0.00641753821           111.459438

!
           320000000         0.0526165874           121.657171        0.00015201706          -82.5924449         0.0478202107   -60.45003800000001       0.000274409354           101.041281
       0.00015201706          -82.5924449         0.0436071707           96.5564986       0.000185241742    82.28002909999999         0.0353913548          -17.3951336
        0.0478202107   -60.45003800000001       0.000185241742    82.28002909999999         0.0446319625           118.822926       0.000456118718    75.98119079999999
      0.000274409354           101.041281         0.0353913548          -17.3951336       0.000456118718    75.98119079999999          0.032058538            101.83727

!
           330000000  0.08374022499999999           100.552317       0.000157240513          -100.316854           0.01939146          -67.1483461 0.0002650843560000001           85.1754167
      0.000157240513          -100.316854         0.0748563815           84.1733594       0.000187197402    62.30709850000001         0.0288873837           18.9810447
          0.01939146          -67.1483461       0.000187197402    62.30709850000001  0.07588772720000001           98.2230617       0.000458206264    56.84936040000001
0.0002650843560000001           85.1754167         0.0288873837           18.9810447       0.000458206264    56.84936040000001  0.06334589089999999    87.87768450000002

!
           340000000           0.11843408    82.46136989999999       0.000161651649          -118.366507         0.0137242809           61.9821187       0.000254752283           70.2441216
      0.000161651649          -118.366507           0.10908942    70.34485910000001       0.000185585045           42.4391506  0.04724797370000001            43.518382
        0.0137242809           61.9821187       0.000185585045           42.4391506          0.110620332           80.6270851       0.000453934044    37.85749009999999
      0.000254752283           70.2441216  0.04724797370000001            43.518382       0.000453934044    37.85749009999999  0.09767159600000001           73.2384927

!
           350000000          0.153512126           65.6935146       0.000164784582          -136.651127         0.0446402268           61.4169066       0.000245287229           56.4621662
      0.000164784582          -136.651127          0.143393051           55.9928927       0.000180749689           23.0426227         0.0743539027           42.7573348
        0.0446402268           61.4169066       0.000180749689           23.0426227          0.145701464           64.1897065       0.000443726384           19.2918411
      0.000245287229           56.4621662         0.0743539027           42.7573348       0.000443726384           19.2918411          0.132138058    58.42274259999999

!
           360000000          0.186123486    49.73480479999999       0.000166339091          -155.001592         0.0734583227           49.1539477       0.000238896094           43.7851929
      0.000166339091          -155.001592          0.175083659           41.5381457       0.000173622659           4.41593342          0.100889497    34.08538699999999
        0.0734583227           49.1539477       0.000173622659           4.41593342          0.178297394    48.44374520000001       0.000429159091           1.41162323
      0.000238896094           43.7851929          0.100889497    34.08538699999999       0.000429159091           1.41162323          0.164048264           43.6900821

!
           370000000          0.214058664           34.4082591       0.000166336975          -173.228563         0.0977755125           35.8940351       0.000237313678           31.8417852
      0.000166336975          -173.228563           0.20208694           27.1970294       0.000165375968          -13.2674953          0.123525108           22.8282535
        0.0977755125           35.8940351       0.000165375968          -13.2674953          0.206193497           33.2529613       0.000412468476          -15.6041756
      0.000237313678           31.8417852          0.123525108           22.8282535       0.000412468476          -15.6041756          0.191299912           29.1859796

!
           380000000          0.235872252           19.6186462       0.000165092187           168.811823           0.11636717           22.7040609       0.000241262388           20.0612309
      0.000165092187           168.811823          0.223056839           13.0561635       0.000157069312          -29.9666306          0.140706743           10.6173312
          0.11636717           22.7040609       0.000157069312          -29.9666306          0.227930673           18.5472841       0.000395966741          -31.6784362
      0.000241262388           20.0612309          0.140706743           10.6173312       0.000395966741          -31.6784362           0.21251609           14.9634214

!
           390000000          0.250774869           5.27410685       0.000163048231           151.183699          0.128665446    9.825235220000002       0.000250495177           7.90672628
      0.000163048231           151.183699          0.237259875         -0.890000259       0.000149466919           -45.738621          0.151733679           -1.9834229
         0.128665446    9.825235220000002       0.000149466919           -45.738621          0.242705336    4.249703660000001       0.000381671909          -46.8326098