! Tyco Electronics Strada Whisper System
! THRU_G1112
!! 
!! SYSTEM DESCRIPTION: Daughtercard-Footprint-Connector-Footprint-Daughtercard
!! PCB DESCRIPTION: DC: 140mil, Megtron7N, upper layer route, 15mil stub, 6-6-6mil 12" traces
!! CONNECTOR DESCRIPTION: Next-Gen STRADA Whisper Direct-Plug Orthogonal Connector
!! MODEL DESCRIPTION: Tyco Electronics System 4-port S-parameter 
!! MODEL STATUS: Developmental
!! MODEL GEOMETRY: Channel Model
!! MODEL FREQUENCY RANGE: DC to 60 GHz in 10 MHz frequency steps
!! MODEL EDGE RATE LIMITATION: 8.3 ps (Using conservative 0.5/Fmax rule of thumb)
!! 
!! TIME-DOMAIN TRANSFORM CAUTIONS: 
!! 1.) Do not simulate transient edge rates faster than the number listed above.  Edge rates faster than this number 
!!     contain significant spectral content at frequencies above the model's highest frequency. 
!! 2.) Even when simulating edge rates that are slower than the number listed above, be aware that the best time 
!!     resolution possible with a direct iFFT is (1 / 2Fmax).  As a result, time resolution is typically not adequate 
!!     for most time-domain simulations unless tricks such as windowing are used to minimize leakage and aliasing. 
!! 3.) Because the model has a uniform frequency step, a direct iFFT will result in an impulse that that has a time 
!!     length given by either (1 / Fstep) or (1 / 2Fstep), depending on the transform being used.  Care has been taken 
!!     in selecting the frequency step to ensure a settled impulse response for the model.  Therefore, convolution with 
!!     the model's impulse response should present no issues.  However, if directly concatenating s-parameter models 
!!     in the frequency domain a user must either interpolate necessary interim frequencies or complete impulse response 
!!     zero-padding.  Impulse response zero-padding is more difficult, but more accurate. 
!! 
!! PORT DEFINITIONS: 
!! Port   1  ----->  TX Side      G11     RX Side  <-----  Port   2
!! Port   3  ----->  TX Side      G12     RX Side  <-----  Port   4
!! 
!!!!!!!!!!!!!!!!!!!!!!!!!!!!!!!!!!!!!!!!!!!!!!!!!!!!!!!!!!!!!!!!!!!!!!!!!!!!!!!!!!!!!!!!!!!!!!!!!!!!!!!!!!!!!!!!!!!!!!!!
! Touchstone data
! Created: 10-Dec-2018 by IdEM R2012 (8.0.5)
# Hz S MA R 50

!
                   0         0.0517071932                    0          0.946488735                    0        0.00172075336                    0        0.00135755194                  180
         0.946488735                    0         0.0514105367                    0        0.00137840695                  180        0.00190984166                    0
       0.00172075336                    0        0.00137840695                  180         0.0519584674                    0          0.946299779                    0
       0.00135755194                  180        0.00190984166                    0          0.946299779                    0         0.0515213991                    0

!
            10000000         0.0618435976           15.5962995   0.9437231650000001          -16.3193312         0.0334878427           70.9580982         0.0027537506          -156.316958
  0.9437231650000001          -16.3193312         0.0616659692           15.8109953        0.00274676583          -157.176612         0.0336020913           70.6216743
        0.0334878427           70.9580982        0.00274676583          -157.176612         0.0622506146           15.7555774          0.943526522          -16.3213267
        0.0027537506          -156.316958         0.0336020913           70.6216743          0.943526522          -16.3213267         0.0619295343           16.0101787

!
            20000000         0.0806461612            17.719689          0.939818928          -32.5497968  0.06392024139999999           56.4674859 0.004782069800000001           179.228048
         0.939818928          -32.5497968  0.08067217090000001            17.924155         0.0047618778            178.34727         0.0641311468    56.25374269999999
 0.06392024139999999           56.4674859         0.0047618778            178.34727          0.081368618           17.9017524   0.9396002249999998          -32.5531766
0.004782069800000001           179.228048         0.0641311468    56.25374269999999   0.9396002249999998          -32.5531766         0.0812306255           18.1561476

!
            30000000  0.09836398120000001            11.530912   0.9354953230000002          -48.6735232         0.0890190199           41.2275052        0.00658573428           146.335463
  0.9354953230000002          -48.6735232  0.09858315690000001           11.6660592        0.00657734533           145.352528         0.0893260471           41.0298026
        0.0890190199           41.2275052        0.00657734533           145.352528          0.099435787           11.7003829          0.935246166           -48.677231
       0.00658573428           146.335463         0.0893260471           41.0298026          0.935246166           -48.677231          0.099453024           11.8929564

!
            40000000          0.110209068           1.46026208          0.931693052          -64.6963583          0.107043774           25.9606027        0.00801952249           110.943048
         0.931693052          -64.6963583          0.110608682           1.51623805        0.00805008558           109.877259          0.107443884    25.74520740000001
         0.107043774           25.9606027        0.00805008558           109.877259          0.111637966           1.61755583   0.9314130539999999   -64.69906039999999
       0.00801952249           110.943048          0.107443884    25.74520740000001   0.9314130539999999   -64.69906039999999          0.111784604           1.74466565

!
            50000000          0.113942632          -10.5691985          0.929175724          -80.6549121           0.11686583           10.7610949        0.00901837346           74.2604831
         0.929175724          -80.6549121          0.114517721          -10.6050831        0.00911308588           73.1899899          0.117356173           10.5038189
          0.11686583           10.7610949        0.00911308588           73.1899899          0.115734872           -10.418438          0.928873476   -80.65518880000001
       0.00901837346           74.2604831          0.117356173           10.5038189          0.928873476   -80.65518880000001          0.115994598          -10.3589102

!
            60000000          0.108510743          -23.7936381          0.928294689   -96.60678660000001          0.117824763   -4.390537929999999        0.00953836699           36.4073237
         0.928294689   -96.60678660000001           0.10926228          -23.9528163        0.00971478686            35.460732          0.118402586           -4.7192812
         0.117824763   -4.390537929999999        0.00971478686            35.460732          0.110675289          -23.6427141   0.9279880870000001          -96.6033278
       0.00953836699           36.4073237          0.118402586           -4.7192812   0.9279880870000001          -96.6033278          0.111038271          -23.6639602

!
            70000000  0.09352812369999999   -37.97829360000001          0.928870829          -112.615979           0.10965099          -19.4987217        0.00955001841           -3.0258776
         0.928870829          -112.615979         0.0944619345          -38.3341192        0.00981148387   -3.654170419999999          0.110311508   -19.94763560000001
          0.10965099          -19.4987217        0.00981148387   -3.654170419999999  0.09607494819999998          -37.8162553   0.9285869450000001           -112.60779
       0.00955001841           -3.0258776          0.110311508   -19.94763560000001   0.9285869450000001           -112.60779         0.0965362708           -37.954932

!
            80000000         0.0691777229          -53.2643417           0.93017133           -128.73575         0.0925462693          -34.4189061 0.009064000439999999   -44.98546870000001
          0.93017133           -128.73575         0.0703083426   -54.01038820000001 0.009390576180000001   -44.99304710000001         0.0932772127          -35.0861321
        0.0925462693          -34.4189061 0.009390576180000001   -44.99304710000001         0.0721127493          -53.0570818          0.929945357           -128.72237
0.009064000439999999   -44.98546870000001         0.0932772127          -35.0861321          0.929945357           -128.72237         0.0726740919          -53.4136999

!
            90000000  0.03639273580000001   -71.02512400000001          0.931013576          -144.990028         0.0674263965          -48.5038203 0.008205953199999999   -91.22358319999999
         0.931013576          -144.990028         0.0377809327   -72.92067350000001 0.008539049179999999   -90.14704279999999         0.0681926871          -49.6411717
        0.0674263965          -48.5038203 0.008539049179999999   -90.14704279999999         0.0397064123           -70.517754          0.930885933          -144.971746
0.008205953199999999   -91.22358319999999         0.0681926871          -49.6411717          0.930885933          -144.971746         0.0403932733          -71.4798955

!
           100000000        0.00491024828           146.586007          0.930063639          -161.358059         0.0363119753   -58.48280460000001 0.007364744400000001          -144.282584
         0.930063639          -161.358059         0.0057838143           169.618514        0.00758484393          -141.679659         0.0369759715          -61.1156731
        0.0363119753   -58.48280460000001        0.00758484393          -141.679659        0.00371802838          -164.999884          0.930074564          -161.336059
0.007364744400000001          -144.282584         0.0369759715          -61.1156731          0.930074564          -161.336059        0.00483860337          -158.060182

!
           110000000         0.0468439545    87.84198979999999          0.926317201          -177.772056 0.008516899790000001          0.920814531 0.007302560619999999           155.723022
         0.926317201          -177.772056         0.0455744582           90.9112544 0.007257019959999999           159.108128        0.00684023079          -8.34501758
0.008516899790000001          0.920814531 0.007257019959999999           159.108128         0.0428367001            88.530507   0.9264995230000001          -177.748407
0.007302560619999999           155.723022        0.00684023079          -8.34501758   0.9264995230000001          -177.748407         0.0422191631           90.4108202

!
           120000000         0.0905381191           69.8831728   0.9195594100000001           165.864408         0.0364441724            61.916855        0.00865440112           96.6937463
  0.9195594100000001           165.864408         0.0890715334    71.75802210000001        0.00833466695    98.82840050000002         0.0349008957           64.7773376
        0.0364441724            61.916855        0.00833466695    98.82840050000002         0.0862218521    70.21897840000001          0.919931976           165.886955
       0.00865440112           96.6937463         0.0349008957           64.7773376          0.919931976           165.886955  0.08548833689999999           71.3417791

!
           130000000          0.131229101    53.49679210000001          0.910502523           149.642492         0.0686865661           52.4926664         0.0111914989    45.73164529999999
         0.910502523           149.642492          0.129652746           55.0156771          0.010746621    46.26037160000001         0.0672674592           54.3608945
        0.0686865661           52.4926664          0.010746621    46.26037160000001           0.12665568           53.7644824          0.911067141           149.660854
        0.0111914989    45.73164529999999         0.0672674592           54.3608945          0.911067141           149.660854          0.125849162           54.6724701

!
           140000000          0.166145268           37.7739945          0.900496189           133.617004         0.0960004184    39.20803939999999         0.0143011593           2.08572027
         0.900496189           133.617004          0.164499114           39.1617235         0.0138587694            1.6948503          0.094614737           40.7470483
        0.0960004184    39.20803939999999         0.0138587694            1.6948503            0.1613484           38.0242181          0.901239019           133.628149
        0.0143011593           2.08572027          0.094614737           40.7470483          0.901239019           133.628149          0.160482886           38.8565903

!
           150000000          0.193527627           22.5459332          0.891026419           117.793931          0.116656794           25.3304412         0.0175256271          -36.8063129
         0.891026419           117.793931          0.191839343           23.9069451         0.0171572873          -37.6091546          0.115289868            26.760956
         0.116656794           25.3304412         0.0171572873          -37.6091546          0.188523973    22.79840340000001          0.891922122           117.795166
        0.0175256271          -36.8063129          0.115289868            26.760956          0.891922122           117.795166           0.18760777           23.6198701

!
           160000000          0.212509747           7.70915873   0.8833076790000001           102.137155          0.129928594           11.4696768         0.0205837858          -72.6727956
  0.8833076790000001           102.137155          0.210801477           9.11296791         0.0203268476          -73.6198651          0.128581522           12.9093525
         0.129928594           11.4696768         0.0203268476          -73.6198651          0.207298799    7.977067309999998   0.8843236440000001           102.126287
        0.0205837858          -72.6727956          0.128581522           12.9093525   0.8843236440000001           102.126287          0.206339221    8.831646169999999

!
           170000000          0.222821434          -6.85403215          0.878096825           86.5840886          0.135613866          -2.26317898         0.0232924865          -106.529532
         0.878096825           86.5840886          0.221113941   -5.345658739999999         0.0231646707          -107.480331          0.134295668         -0.720555504
         0.135613866          -2.26317898         0.0231646707          -107.480331          0.217388862   -6.557521600000001          0.879195757           86.5594875
        0.0232924865          -106.529532          0.134295668         -0.720555504          0.879195757           86.5594875          0.216394988   -5.629566520000001

!
           180000000          0.224514117          -21.2715456           0.87567172            71.060851          0.133742695          -15.8951199         0.0255108038          -138.994792
          0.87567172            71.060851          0.222831408          -19.5903092         0.0255173378          -139.869671          0.132473016           -14.145003
         0.133742695          -15.8951199         0.0255173378          -139.869671          0.218837667          -20.9298404   0.8768123960000001    71.02150260000001
        0.0255108038          -138.994792          0.132473016           -14.145003   0.8768123960000001    71.02150260000001          0.217823338          -19.8828078

!
           190000000          0.217820469          -35.6594791          0.875868452            55.493996          0.124459209          -29.4553346         0.0271099581          -170.450626
         0.875868452            55.493996            0.2161959   -33.71767930000001          0.027247185          -171.198923          0.123277135          -27.3489228
         0.124459209          -29.4553346          0.027247185          -171.198923          0.211877554           -35.248877          0.877005569    55.43959340000001
        0.0271099581          -170.450626          0.123277135          -27.3489228          0.877005569    55.43959340000001          0.210865541   -34.02284350000001

!
           200000000           0.20317616          -50.0944575          0.878121033           39.8204765           0.10808576          -42.8608884         0.0279663248           158.895839
         0.878121033           39.8204765          0.201661154   -47.76754520000001         0.0282237442           158.311491           0.10706872          -40.1441967
          0.10808576          -42.8608884         0.0282237442           158.311491          0.196952776   -49.57827950000001          0.879205632           39.7515734
        0.0279663248           158.895839           0.10706872          -40.1441967          0.879205632           39.7515734          0.195981103   -48.08659920000001

!
           210000000           0.18137956   -64.58198280000001   0.8815190459999999           23.9981123         0.0853370668          -55.7014816           0.02797806           129.001633
  0.8815190459999999           23.9981123          0.180056778          -61.6793136         0.0283400011           128.613686         0.0846489087          -51.8589603
        0.0853370668          -55.7014816         0.0283400011           128.613686          0.174880103          -63.8994024   0.8825010280000001           23.9162923
          0.02797806           129.001633         0.0846489087          -51.8589603   0.8825010280000001           23.9162923          0.174012103   -62.00699590000001

!
           220000000          0.153812606   -79.02156530000001          0.884943395           8.01590979         0.0576444108          -66.4645364         0.0271038341    99.99959610000001
         0.884943395           8.01590979          0.152817273          -75.2316692         0.0275517736    99.84024280000001  0.05770440599999999          -60.1943304
        0.0576444108          -66.4645364         0.0275517736    99.84024280000001          0.147070059           -78.063873          0.885777017           7.92387703
        0.0271038341    99.99959610000001  0.05770440599999999          -60.1943304          0.885777017           7.92387703          0.146411373   -75.54516940000001

!
           230000000          0.122584517   -93.16763880000001          0.887321432   -8.100692049999999         0.0279715752          -66.9713726         0.0254127645    72.21028939999999
         0.887321432   -8.100692049999999          0.122142473          -87.9479113          0.025929037    72.31300349999999         0.0303936255          -54.2752926
        0.0279715752          -66.9713726          0.025929037    72.31300349999999          0.115671715          -91.7220502   0.8879731879999999   -8.199210819999999
        0.0254127645    72.21028939999999         0.0303936255          -54.2752926   0.8879731879999999   -8.199210819999999            0.1154025   -88.17254509999999

!
           240000000  0.09044620719999999          -106.569686   0.8879465680000001          -24.2960598         0.0150844066    8.834385340000001         0.0231220708           46.1257343
  0.8879465680000001          -24.2960598         0.0909502138   -98.91284140000001         0.0236949236           46.5213965         0.0223200937           3.15518906
        0.0150844066    8.834385340000001         0.0236949236           46.5213965         0.0834958261          -104.167698   0.8884029889999999          -24.3966524
        0.0231220708           46.1257343         0.0223200937           3.15518906   0.8884029889999999          -24.3966524         0.0839416606          -98.8064703

!
           250000000         0.0604313984          -118.422978          0.886701623          -40.5034068         0.0395209669    34.61834420000001         0.0205946668           22.3109864
         0.886701623          -40.5034068         0.0626051401          -106.380127         0.0212229979           23.0127816         0.0440521194           25.5228819
        0.0395209669    34.61834420000001         0.0212229979           23.0127816         0.0536976915          -113.856991   0.8869737600000001          -40.6014973
        0.0205946668           22.3109864         0.0440521194           25.5228819   0.8869737600000001          -40.6014973         0.0555053004          -105.111828

!
           260000000         0.0353661849          -127.131535   0.8840382530000001          -56.6688856         0.0637166416           26.9052359         0.0182763575           1.11723497
  0.8840382530000001          -56.6688856         0.0405633626          -107.288626         0.0189702578           2.09052503         0.0671760037            20.036822
        0.0637166416           26.9052359         0.0189702578           2.09052503         0.0294675325          -116.596477   0.8841610979999999          -56.7602963
        0.0182763575           1.11723497         0.0671760037            20.036822   0.8841610979999999          -56.7602963         0.0339887908          -102.081985

!
           270000000         0.0174318676          -129.359649          0.880719581          -72.7688103         0.0816711541           14.6526355         0.0165599235          -17.8603823
         0.880719581          -72.7688103         0.0275154452          -99.9004826         0.0173327619          -16.7187698           0.08458994    8.696310540000001
        0.0816711541           14.6526355         0.0173327619          -16.7187698         0.0143224374          -100.021813          0.880747359          -72.8502203
        0.0165599235          -17.8603823           0.08458994    8.696310540000001          0.880747359          -72.8502203         0.0231099064          -85.9693967

!
           280000000        0.00736873713          -124.051772          0.877476568   -88.81316390000001  0.09169071870000001           1.24409323         0.0155967512          -36.1743889
         0.877476568   -88.81316390000001          0.022031165   -94.58168430000001         0.0164520545   -34.98370130000001         0.0942313444          -4.51724672
 0.09169071870000001           1.24409323         0.0164520545   -34.98370130000001         0.0101260934   -66.17097390000001          0.877476436          -88.8824046
        0.0155967512          -36.1743889         0.0942313444          -4.51724672          0.877476436          -88.8824046         0.0204558199          -74.1856595

!
           290000000        0.00349423815          -172.660313          0.874731629          -104.836804  0.09303456680000001          -12.3892727         0.0151877882          -55.9305729
         0.874731629          -104.836804          0.018315524          -108.480876         0.0161135261          -54.7155057  0.09522692889999999          -18.5023914
 0.09303456680000001          -12.3892727         0.0161135261          -54.7155057 0.007012336190000001          -58.5309331          0.874777763           -104.89302
        0.0151877882          -55.9305729  0.09522692889999999          -18.5023914          0.874777763           -104.89302         0.0171931336   -83.25590560000001

!
           300000000         0.0124023126           129.550141          0.872456543          -120.883676  0.08562377540000002          -25.6923199         0.0148937105          -78.6358547
         0.872456543          -120.883676         0.0169001478          -155.466162         0.0158655641   -77.28543070000001          0.087400559          -32.8152826
 0.08562377540000002          -25.6923199         0.0158655641   -77.28543070000001 0.003255481580000001           141.724824   0.8726248880000002          -120.927411
        0.0148937105          -78.6358547          0.087400559          -32.8152826   0.8726248880000002          -120.927411         0.0116112435          -130.762722

!
           310000000  0.03082859380000001           114.042454   0.8701720160000002          -136.988659         0.0700618324          -37.7739989         0.0142622716          -104.959231
  0.8701720160000002          -136.988659         0.0285831949           151.762931         0.0152440689          -103.252287         0.0712062378          -47.0874443
        0.0700618324          -37.7739989         0.0152440689          -103.252287         0.0214368729           116.577382   0.8705346699999998          -137.021895
        0.0142622716          -104.959231         0.0712062378          -47.0874443   0.8705346699999998          -137.021895         0.0204182783             151.6219

!
           320000000         0.0567563278           100.536781   0.8670923910000001          -153.160872         0.0479476463   -45.88107049999999         0.0129980169          -135.429181
  0.8670923910000001          -153.160872         0.0526165874           121.657171         0.0139340903          -133.014389         0.0478202107   -60.45003800000001
        0.0479476463   -45.88107049999999         0.0139340903          -133.014389         0.0472619735            102.44539   0.8677106010000001          -153.186985
        0.0129980169          -135.429181         0.0478202107   -60.45003800000001   0.8677106010000001          -153.186985         0.0446319625           118.822926

!
           330000000         0.0883667776           86.5074138          0.862412097          -169.373655         0.0238663109          -35.0312146         0.0110808809          -171.452624
         0.862412097          -169.373655  0.08374022499999999           100.552317         0.0118763351          -167.728115           0.01939146          -67.1483461
        0.0238663109          -35.0312146         0.0118763351          -167.728115  0.07883604880000002    88.05874970000001          0.863328291          -169.397208
        0.0110808809          -171.452624           0.01939146          -67.1483461          0.863328291          -169.397208  0.07588772720000001           98.2230617

!
           340000000          0.123097349            71.985434           0.85566231           174.432492         0.0233439359           32.6656855         0.0089646912           143.335539
          0.85566231           174.432492           0.11843408    82.46136989999999        0.00943713534           149.255299         0.0137242809           61.9821187
        0.0233439359           32.6656855        0.00943713534           149.255299           0.11359218           73.2973488          0.856893538           174.406164
        0.0089646912           143.335539         0.0137242809           61.9821187          0.856893538           174.406164          0.110620332           80.6270851

!
           350000000          0.158023064           57.2284688   0.8469720710000001           158.331966         0.0496990006    45.97365210000001        0.00795488445           84.9376707
  0.8469720710000001           158.331966          0.153512126           65.6935146        0.00782314322           92.1933824         0.0446402268           61.4169066
        0.0496990006    45.97365210000001        0.00782314322           92.1933824           0.14859703    58.37884799999999          0.848508004           158.297337
       0.00795488445           84.9376707         0.0446402268           61.4169066          0.848508004           158.297337          0.145701464           64.1897065

!
           360000000          0.190383539    42.46774929999999          0.837075116           142.388348         0.0770495209           38.8486027 0.009546464879999999           24.5813502
         0.837075116           142.388348          0.186123486    49.73480479999999 0.008880103909999999           28.6326234         0.0734583227           49.1539477
        0.0770495209           38.8486027 0.008880103909999999           28.6326234           0.18107155    43.51147140000001           0.83888197           142.340288
0.009546464879999999           24.5813502         0.0734583227           49.1539477           0.83888197           142.340288          0.178297394    48.44374520000001

!
           370000000          0.218007244           27.8568976          0.827063184           126.634026          0.100512744           27.7722095         0.0132191807          -23.3250321
         0.827063184           126.634026          0.214058664           34.4082591         0.0124252142          -22.1154018         0.0977755125           35.8940351
         0.100512744           27.7722095         0.0124252142          -22.1154018           0.20881842           28.8353035   0.8290916959999999            126.56824
        0.0132191807          -23.3250321         0.0977755125           35.8940351   0.8290916959999999            126.56824          0.206193497           33.2529613

!
           380000000           0.23946509           13.4613827          0.818051848           111.063801          0.118448881           15.6240541         0.0177143877   -61.74384880000001
         0.818051848           111.063801          0.235872252           19.6186462         0.0169826964          -61.5866801           0.11636717           22.7040609
         0.118448881           15.6240541         0.0169826964          -61.5866801          0.230382361           14.4084961          0.820245569           110.977018
        0.0177143877   -61.74384880000001           0.11636717           22.7040609          0.820245569           110.977018          0.227930673           18.5472841

!
           390000000          0.253971305  -0.7309898620000001          0.810932306           95.6410063          0.130158744    3.188707459999999         0.0223245888          -95.2752881
         0.810932306           95.6410063          0.250774869           5.27410685          0.021709625          -95.4390963          0.128665446    9.825235220000002
         0.130158744    3.188707459999999          0.021709625          -95.4390963          0.244956879          0.215958544          0.813233196    95.53097870000001